[{"id": 395, "product_number": "75283", "CAS_number": "37620-20-5", "product_name": "N-Nitrosoanabasine", "product_brand": "Sigma-Aldrich", "supplier": {"company": ":  Sigma-Aldrich Inc.", "location": "3050 SPRUCE ST. ST. LOUIS MO  63103. UNITED STATES", "tel": ":  +1 314 771-5765", "fax": ":  +1 800 325-5052"}, "formula": ":  C10H13N3O", "mw": ":  191.23 g/mol", "ec": "No data available", "appearance": "Form: viscous liquid. Color: light yellow", "odor": "No data available", "pH": "No data available", "melting_point": "No data available. point/freezing point", "flash_point": "()No data available", "evaporation_rate": "No data available", "flammability": "No data available. gas)", "vapor_pressure": "No data available", "vapor_density": "No data available", "density": "No data available. Relative density. No data available", "water_solubility": "No data available", "partition_coefficient": "log Pow: 1.157. n-octanol/water", "autoignition": "No data available. temperature", "decomposition": "No data available. temperature", "viscosity": "No data available", "explosive_properties": "No data available", "oxidizing_properties": "No data available", "bulk_density": "No data available", "particle_size": "No data available", "statements": [{"code": "H301", "statement": "Toxic if swallowed.. Precautionary statement(s)"}, {"code": "P264", "statement": "Wash skin thoroughly after handling."}, {"code": "P270", "statement": "Do not eat, drink or smoke when using this product."}, {"code": "P301 + P310", "statement": "IF SWALLOWED: Immediately call a POISON CENTER/ doctor."}, {"code": "P321", "statement": "Specific treatment (see supplemental first aid instructions on. this label)."}, {"code": "P330", "statement": "Rinse mouth."}, {"code": "P405", "statement": "Store locked up."}, {"code": "P501", "statement": "Dispose of contents/ container to an approved waste disposal. plant."}, {"code": "H318", "statement": "Causes serious eye damage.. Precautionary statement(s)"}, {"code": "P280", "statement": "Wear protective gloves/ eye protection/ face protection."}, {"code": "P305 + P351 + P338", "statement": "IF IN EYES: Rinse cautiously with water for several minutes.. Remove contact lenses, if present and easy to do. Continue. rinsing."}, {"code": "P310", "statement": "Immediately call a POISON CENTER/ doctor."}, {"code": "H319", "statement": "Causes serious eye irritation."}, {"code": "H411", "statement": "Toxic to aquatic life with long lasting effects.. Precautionary statement(s)"}, {"code": "P264", "statement": "Wash skin thoroughly after handling."}, {"code": "P273", "statement": "Avoid release to the environment."}, {"code": "P280", "statement": "Wear eye protection/ face protection."}, {"code": "P305 + P351 + P338", "statement": "IF IN EYES: Rinse cautiously with water for several minutes.. Remove contact lenses, if present and easy to do. Continue. rinsing."}, {"code": "P337 + P313", "statement": "If eye irritation persists: Get medical advice/ attention."}, {"code": "P391", "statement": "Collect spillage."}, {"code": "P501", "statement": "Dispose of contents/ container to an approved waste disposal. plant."}]}, {"id": 336, "product_number": "448103", "CAS_number": "888719-03-7", "product_name": "Met/Flt-3/VEGFR2 Tyrosine Kinase Inhibitor", "product_brand": "Millipore", "supplier": {"company": ":  Sigma-Aldrich Inc.", "location": "3050 SPRUCE ST. ST. LOUIS MO  63103. UNITED STATES", "tel": ":  +1 314 771-5765", "fax": ":  +1 800 325-5052"}, "formula": "No data available", "mw": ":  458.42 g/mol", "ec": "No data available", "appearance": "Form: solid. Color: white", "odor": "No data available", "pH": "No data available", "melting_point": "Melting point/range: 212 - 214 \u00b0C (414 - 417 \u00b0F). point/freezing point", "flash_point": "()Not applicable", "evaporation_rate": "No data available", "flammability": "No data available. gas)", "vapor_pressure": "No data available", "vapor_density": "No data available", "density": "No data available", "water_solubility": "No data available", "partition_coefficient": "log Pow: 1.917 at 25 \u00b0C (77 \u00b0F). n-octanol/water", "autoignition": "No data available. temperature", "decomposition": "No data available. temperature", "viscosity": "No data available", "explosive_properties": "No data available", "oxidizing_properties": "No data available", "bulk_density": "No data available", "particle_size": "No data available", "statements": [{"code": "H301", "statement": "Toxic if swallowed.. Precautionary statement(s)"}, {"code": "P264", "statement": "Wash skin thoroughly after handling."}, {"code": "P270", "statement": "Do not eat, drink or smoke when using this product."}, {"code": "P301 + P310", "statement": "IF SWALLOWED: Immediately call a POISON CENTER/ doctor."}, {"code": "P321", "statement": "Specific treatment (see supplemental first aid instructions on. this label)."}, {"code": "P330", "statement": "Rinse mouth."}, {"code": "P405", "statement": "Store locked up."}, {"code": "P501", "statement": "Dispose of contents/ container to an approved waste disposal. plant."}, {"code": "H318", "statement": "Causes serious eye damage.. Precautionary statement(s)"}, {"code": "P280", "statement": "Wear protective gloves/ eye protection/ face protection."}, {"code": "P305 + P351 + P338", "statement": "IF IN EYES: Rinse cautiously with water for several minutes.. Remove contact lenses, if present and easy to do. Continue. rinsing."}, {"code": "P310", "statement": "Immediately call a POISON CENTER/ doctor."}, {"code": "H319", "statement": "Causes serious eye irritation."}, {"code": "H411", "statement": "Toxic to aquatic life with long lasting effects.. Precautionary statement(s)"}, {"code": "P264", "statement": "Wash skin thoroughly after handling."}, {"code": "P273", "statement": "Avoid release to the environment."}, {"code": "P280", "statement": "Wear eye protection/ face protection."}, {"code": "P305 + P351 + P338", "statement": "IF IN EYES: Rinse cautiously with water for several minutes.. Remove contact lenses, if present and easy to do. Continue. rinsing."}, {"code": "P337 + P313", "statement": "If eye irritation persists: Get medical advice/ attention."}, {"code": "P391", "statement": "Collect spillage."}, {"code": "P501", "statement": "Dispose of contents/ container to an approved waste disposal. plant."}]}, {"id": 377, "product_number": "S614580", "CAS_number": "88881-74-7", "product_name": "ETHYL 2-(4-", "product_brand": "Aldrich", "supplier": {"company": ":  Sigma-Aldrich Inc.", "location": "3050 SPRUCE ST. ST. LOUIS MO  63103. UNITED STATES", "tel": ":  +1 314 771-5765", "fax": ":  +1 800 325-5052"}, "formula": ":  C12H15NO5S", "mw": ":  285.32 g/mol", "ec": "No data available", "appearance": "No data available", "odor": "No data available", "pH": "No data available", "melting_point": "No data available", "flash_point": "No data available", "evaporation_rate": "No data available", "flammability": "No data available", "vapor_pressure": "No data available", "vapor_density": "No data available", "density": "No data available", "water_solubility": "No data available", "partition_coefficient": "No data available", "autoignition": "No data available", "decomposition": "No data available", "viscosity": "No data available", "explosive_properties": "No data available", "oxidizing_properties": "No data available", "bulk_density": "No data available", "particle_size": "No data available", "statements": [{"code": "H301", "statement": "Toxic if swallowed.. Precautionary statement(s)"}, {"code": "P264", "statement": "Wash skin thoroughly after handling."}, {"code": "P270", "statement": "Do not eat, drink or smoke when using this product."}, {"code": "P301 + P310", "statement": "IF SWALLOWED: Immediately call a POISON CENTER/ doctor."}, {"code": "P321", "statement": "Specific treatment (see supplemental first aid instructions on. this label)."}, {"code": "P330", "statement": "Rinse mouth."}, {"code": "P405", "statement": "Store locked up."}, {"code": "P501", "statement": "Dispose of contents/ container to an approved waste disposal. plant."}, {"code": "H318", "statement": "Causes serious eye damage.. Precautionary statement(s)"}, {"code": "P280", "statement": "Wear protective gloves/ eye protection/ face protection."}, {"code": "P305 + P351 + P338", "statement": "IF IN EYES: Rinse cautiously with water for several minutes.. Remove contact lenses, if present and easy to do. Continue. rinsing."}, {"code": "P310", "statement": "Immediately call a POISON CENTER/ doctor."}, {"code": "H319", "statement": "Causes serious eye irritation."}, {"code": "H411", "statement": "Toxic to aquatic life with long lasting effects.. Precautionary statement(s)"}, {"code": "P264", "statement": "Wash skin thoroughly after handling."}, {"code": "P273", "statement": "Avoid release to the environment."}, {"code": "P280", "statement": "Wear eye protection/ face protection."}, {"code": "P305 + P351 + P338", "statement": "IF IN EYES: Rinse cautiously with water for several minutes.. Remove contact lenses, if present and easy to do. Continue. rinsing."}, {"code": "P337 + P313", "statement": "If eye irritation persists: Get medical advice/ attention."}, {"code": "P391", "statement": "Collect spillage."}, {"code": "P501", "statement": "Dispose of contents/ container to an approved waste disposal. plant."}]}, {"id": 1850, "product_number": "M1003", "CAS_number": "10102-40-6", "product_name": "Sodium molybdate dihydrate", "product_brand": "SIGALD", "supplier": {"company": ":  Sigma-Aldrich Inc.", "location": "3050 SPRUCE ST. ST. LOUIS MO  63103. UNITED STATES", "tel": ":  +1 314 771-5765", "fax": ":  +1 800 325-5052"}, "formula": ":  MoNa2O4 \u00b7 2H2O", "mw": ":  241.95 g/mol", "ec": ":  231-551-7. No components need to be disclosed according to the applicable regulations.", "appearance": "Form: solid. Color: white", "odor": "Not applicable", "pH": "9 - 10 at 840 g/l at 20 \u00b0C (68 \u00b0F)", "melting_point": "Melting point/range: 100 \u00b0C (212 \u00b0F). point/freezing point", "flash_point": "()Not applicable", "evaporation_rate": "No data available", "flammability": "The product is not flammable.. gas)", "vapor_pressure": "Not applicable", "vapor_density": "No data available", "density": "2.71 g/cm3 at 22 \u00b0C (72 \u00b0F). Relative density. No data available", "water_solubility": "840 g/l at 20 \u00b0C (68 \u00b0F)", "partition_coefficient": "Not applicable. n-octanol/water", "autoignition": "No data available. temperature", "decomposition": "130 \u00b0C (266 \u00b0F) - Elimination of water of crystallization. temperature", "viscosity": "No data available", "explosive_properties": "No data available", "oxidizing_properties": "No data available", "bulk_density": "No data available", "particle_size": "No data available", "statements": [{"code": "H301", "statement": "Toxic if swallowed.. Precautionary statement(s)"}, {"code": "P264", "statement": "Wash skin thoroughly after handling."}, {"code": "P270", "statement": "Do not eat, drink or smoke when using this product."}, {"code": "P301 + P310", "statement": "IF SWALLOWED: Immediately call a POISON CENTER/ doctor."}, {"code": "P321", "statement": "Specific treatment (see supplemental first aid instructions on. this label)."}, {"code": "P330", "statement": "Rinse mouth."}, {"code": "P405", "statement": "Store locked up."}, {"code": "P501", "statement": "Dispose of contents/ container to an approved waste disposal. plant."}, {"code": "H318", "statement": "Causes serious eye damage.. Precautionary statement(s)"}, {"code": "P280", "statement": "Wear protective gloves/ eye protection/ face protection."}, {"code": "P305 + P351 + P338", "statement": "IF IN EYES: Rinse cautiously with water for several minutes.. Remove contact lenses, if present and easy to do. Continue. rinsing."}, {"code": "P310", "statement": "Immediately call a POISON CENTER/ doctor."}, {"code": "H319", "statement": "Causes serious eye irritation."}, {"code": "H411", "statement": "Toxic to aquatic life with long lasting effects.. Precautionary statement(s)"}, {"code": "P264", "statement": "Wash skin thoroughly after handling."}, {"code": "P273", "statement": "Avoid release to the environment."}, {"code": "P280", "statement": "Wear eye protection/ face protection."}, {"code": "P305 + P351 + P338", "statement": "IF IN EYES: Rinse cautiously with water for several minutes.. Remove contact lenses, if present and easy to do. Continue. rinsing."}, {"code": "P337 + P313", "statement": "If eye irritation persists: Get medical advice/ attention."}, {"code": "P391", "statement": "Collect spillage."}, {"code": "P501", "statement": "Dispose of contents/ container to an approved waste disposal. plant."}]}, {"id": 1647, "product_number": "S96599", "CAS_number": "3899-90-9", "product_name": "p-Toluenesulfonic acid, m-nitrophenyl ester", "product_brand": "Aldrich", "supplier": {"company": ":  Sigma-Aldrich Inc.", "location": "3050 SPRUCE ST. ST. LOUIS MO  63103. UNITED STATES", "tel": ":  +1 314 771-5765", "fax": ":  +1 800 325-5052"}, "formula": ":  C13H11NO5S", "mw": ":  293.3 g/mol", "ec": "No data available", "appearance": "No data available", "odor": "No data available", "pH": "No data available", "melting_point": "No data available", "flash_point": "No data available", "evaporation_rate": "No data available", "flammability": "No data available", "vapor_pressure": "No data available", "vapor_density": "No data available", "density": "No data available", "water_solubility": "No data available", "partition_coefficient": "No data available", "autoignition": "No data available", "decomposition": "No data available", "viscosity": "No data available", "explosive_properties": "No data available", "oxidizing_properties": "No data available", "bulk_density": "No data available", "particle_size": "No data available", "statements": [{"code": "H301", "statement": "Toxic if swallowed.. Precautionary statement(s)"}, {"code": "P264", "statement": "Wash skin thoroughly after handling."}, {"code": "P270", "statement": "Do not eat, drink or smoke when using this product."}, {"code": "P301 + P310", "statement": "IF SWALLOWED: Immediately call a POISON CENTER/ doctor."}, {"code": "P321", "statement": "Specific treatment (see supplemental first aid instructions on. this label)."}, {"code": "P330", "statement": "Rinse mouth."}, {"code": "P405", "statement": "Store locked up."}, {"code": "P501", "statement": "Dispose of contents/ container to an approved waste disposal. plant."}, {"code": "H318", "statement": "Causes serious eye damage.. Precautionary statement(s)"}, {"code": "P280", "statement": "Wear protective gloves/ eye protection/ face protection."}, {"code": "P305 + P351 + P338", "statement": "IF IN EYES: Rinse cautiously with water for several minutes.. Remove contact lenses, if present and easy to do. Continue. rinsing."}, {"code": "P310", "statement": "Immediately call a POISON CENTER/ doctor."}, {"code": "H319", "statement": "Causes serious eye irritation."}, {"code": "H411", "statement": "Toxic to aquatic life with long lasting effects.. Precautionary statement(s)"}, {"code": "P264", "statement": "Wash skin thoroughly after handling."}, {"code": "P273", "statement": "Avoid release to the environment."}, {"code": "P280", "statement": "Wear eye protection/ face protection."}, {"code": "P305 + P351 + P338", "statement": "IF IN EYES: Rinse cautiously with water for several minutes.. Remove contact lenses, if present and easy to do. Continue. rinsing."}, {"code": "P337 + P313", "statement": "If eye irritation persists: Get medical advice/ attention."}, {"code": "P391", "statement": "Collect spillage."}, {"code": "P501", "statement": "Dispose of contents/ container to an approved waste disposal. plant."}]}, {"id": 365, "product_number": "36764", "CAS_number": "75736-33-3", "product_name": "Diclobutrazol", "product_brand": "Sigma-Aldrich", "supplier": {"company": ":  Sigma-Aldrich Inc.", "location": "3050 SPRUCE ST. ST. LOUIS MO  63103. UNITED STATES", "tel": ":  +1 314 771-5765", "fax": ":  +1 800 325-5052"}, "formula": ":  C15H19Cl2N3O", "mw": ":  328.24 g/mol", "ec": ":  620-436-0", "appearance": "Form: solid", "odor": "No data available", "pH": "No data available", "melting_point": "Melting point/range: 147 - 149 \u00b0C (297 - 300 \u00b0F). point/freezing point", "flash_point": "> 100 \u00b0C (> 212 \u00b0F) - closed cup", "evaporation_rate": "No data available", "flammability": "No data available. gas)", "vapor_pressure": "No data available", "vapor_density": "No data available", "density": "1.250 g/cm3 at 20 \u00b0C (68 \u00b0F). Relative density. No data available", "water_solubility": "No data available", "partition_coefficient": "No data available. n-octanol/water", "autoignition": "No data available. temperature", "decomposition": "No data available. temperature", "viscosity": "No data available", "explosive_properties": "No data available", "oxidizing_properties": "No data available", "bulk_density": "No data available", "particle_size": "No data available", "statements": [{"code": "H301", "statement": "Toxic if swallowed.. Precautionary statement(s)"}, {"code": "P264", "statement": "Wash skin thoroughly after handling."}, {"code": "P270", "statement": "Do not eat, drink or smoke when using this product."}, {"code": "P301 + P310", "statement": "IF SWALLOWED: Immediately call a POISON CENTER/ doctor."}, {"code": "P321", "statement": "Specific treatment (see supplemental first aid instructions on. this label)."}, {"code": "P330", "statement": "Rinse mouth."}, {"code": "P405", "statement": "Store locked up."}, {"code": "P501", "statement": "Dispose of contents/ container to an approved waste disposal. plant."}, {"code": "H318", "statement": "Causes serious eye damage.. Precautionary statement(s)"}, {"code": "P280", "statement": "Wear protective gloves/ eye protection/ face protection."}, {"code": "P305 + P351 + P338", "statement": "IF IN EYES: Rinse cautiously with water for several minutes.. Remove contact lenses, if present and easy to do. Continue. rinsing."}, {"code": "P310", "statement": "Immediately call a POISON CENTER/ doctor."}, {"code": "H319", "statement": "Causes serious eye irritation."}, {"code": "H411", "statement": "Toxic to aquatic life with long lasting effects.. Precautionary statement(s)"}, {"code": "P264", "statement": "Wash skin thoroughly after handling."}, {"code": "P273", "statement": "Avoid release to the environment."}, {"code": "P280", "statement": "Wear eye protection/ face protection."}, {"code": "P305 + P351 + P338", "statement": "IF IN EYES: Rinse cautiously with water for several minutes.. Remove contact lenses, if present and easy to do. Continue. rinsing."}, {"code": "P337 + P313", "statement": "If eye irritation persists: Get medical advice/ attention."}, {"code": "P391", "statement": "Collect spillage."}, {"code": "P501", "statement": "Dispose of contents/ container to an approved waste disposal. plant."}]}]