[{"id": 1595, "product_number": "PHR2238", "CAS_number": "21737-58-6", "product_name": "Oxcarbazepine Related Compound E", "product_brand": "Sigma-Aldrich", "supplier": {"company": ":  Sigma-Aldrich Inc.", "location": "3050 SPRUCE ST. ST. LOUIS MO  63103. UNITED STATES", "tel": ":  +1 314 771-5765", "fax": ":  +1 800 325-5052"}, "formula": "No data available", "mw": ":  209.24 g/mol", "ec": "No data available", "appearance": "Form: powder. Colour: light yellow", "odor": "No data available", "pH": "No data available", "melting_point": "Melting point/range: 138 - 146 \u00b0C (280 - 295 \u00b0F). point/freezing point", "flash_point": "()Not applicable", "evaporation_rate": "No data available", "flammability": "No data available. gas)", "vapor_pressure": "No data available", "vapor_density": "No data available", "density": "No data available", "water_solubility": "No data available", "partition_coefficient": "No data available. n-octanol/water", "autoignition": "No data available", "decomposition": "No data available. temperature", "viscosity": "No data available", "explosive_properties": "No data available", "oxidizing_properties": "No data available", "bulk_density": "No data available", "particle_size": "No data available", "statements": [{"code": "H314", "statement": "Causes severe skin burns and eye damage.. Precautionary statement(s)"}, {"code": "P260", "statement": "Do not breathe dusts or mists."}, {"code": "P264", "statement": "Wash skin thoroughly after handling."}, {"code": "P280", "statement": "Wear protective gloves/ protective clothing/ eye protection/ face. protection."}, {"code": "P301 + P330 + P331", "statement": "IF SWALLOWED: Rinse mouth. Do NOT induce vomiting."}, {"code": "P303 + P361 + P353", "statement": "IF ON SKIN (or hair): Remove/ Take off immediately all. contaminated clothing. Rinse skin with water/ shower."}, {"code": "P304 + P340", "statement": "IF INHALED: Remove victim to fresh air and keep at rest in a. position comfortable for breathing."}, {"code": "P305 + P351 + P338", "statement": "IF IN EYES: Rinse cautiously with water for several minutes.. Remove contact lenses, if present and easy to do. Continue. rinsing."}, {"code": "P310", "statement": "Immediately call a POISON CENTER/ doctor."}, {"code": "P321", "statement": "Specific treatment (see supplemental first aid instructions on. this label)."}, {"code": "P363", "statement": "Wash contaminated clothing before reuse."}, {"code": "P405", "statement": "Store locked up."}, {"code": "P501", "statement": "Dispose of contents/ container to an approved waste disposal. plant."}, {"code": "H372", "statement": "Causes damage to organs (Thyroid) through prolonged or. repeated exposure if swallowed.. Precautionary statement(s)"}, {"code": "P260", "statement": "Do not breathe dust."}, {"code": "P264", "statement": "Wash skin thoroughly after handling."}, {"code": "P270", "statement": "Do not eat, drink or smoke when using this product."}, {"code": "P314", "statement": "Get medical advice/ attention if you feel unwell."}, {"code": "P501", "statement": "Dispose of contents/ container to an approved waste disposal. plant."}, {"code": "H302", "statement": "Harmful if swallowed."}, {"code": "H341", "statement": "Suspected of causing genetic defects."}, {"code": "H350", "statement": "May cause cancer."}, {"code": "H361", "statement": "Suspected of damaging fertility or the unborn child."}, {"code": "H372", "statement": "Causes damage to organs through prolonged or repeated. exposure."}, {"code": "H400", "statement": "Very toxic to aquatic life."}, {"code": "H413", "statement": "May cause long lasting harmful effects to aquatic life.. Precautionary statement(s)"}, {"code": "P201", "statement": "Obtain special instructions before use."}, {"code": "P202", "statement": "Do not handle until all safety precautions have been read and. understood."}, {"code": "P260", "statement": "Do not breathe dust/ fume/ gas/ mist/ vapors/ spray."}, {"code": "P264", "statement": "Wash skin thoroughly after handling."}, {"code": "P270", "statement": "Do not eat, drink or smoke when using this product."}, {"code": "P273", "statement": "Avoid release to the environment."}, {"code": "P280", "statement": "Wear protective gloves/ protective clothing/ eye protection/ face. protection."}, {"code": "P301 + P312 + P330", "statement": "IF SWALLOWED: Call a POISON CENTER/ doctor if you feel. unwell. Rinse mouth."}, {"code": "P308 + P313", "statement": "IF exposed or concerned: Get medical advice/ attention."}, {"code": "P391", "statement": "Collect spillage."}, {"code": "P405", "statement": "Store locked up."}, {"code": "P501", "statement": "Dispose of contents/ container to an approved waste disposal. plant."}]}, {"id": 1475, "product_number": "S668524", "CAS_number": "89-50-9", "product_name": "N-ETHYLANTHRANILIC ACID", "product_brand": "Aldrich", "supplier": {"company": ":  Sigma-Aldrich Inc.", "location": "3050 SPRUCE ST. ST. LOUIS MO  63103. UNITED STATES", "tel": ":  +1 314 771-5765", "fax": ":  +1 800 325-5052"}, "formula": ":  C9H11NO2", "mw": ":  165.19 g/mol", "ec": "No data available", "appearance": "No data available", "odor": "No data available", "pH": "No data available", "melting_point": "No data available", "flash_point": "No data available", "evaporation_rate": "No data available", "flammability": "No data available", "vapor_pressure": "No data available", "vapor_density": "No data available", "density": "No data available", "water_solubility": "No data available", "partition_coefficient": "No data available", "autoignition": "No data available", "decomposition": "No data available", "viscosity": "No data available", "explosive_properties": "No data available", "oxidizing_properties": "No data available", "bulk_density": "No data available", "particle_size": "No data available", "statements": [{"code": "H314", "statement": "Causes severe skin burns and eye damage.. Precautionary statement(s)"}, {"code": "P260", "statement": "Do not breathe dusts or mists."}, {"code": "P264", "statement": "Wash skin thoroughly after handling."}, {"code": "P280", "statement": "Wear protective gloves/ protective clothing/ eye protection/ face. protection."}, {"code": "P301 + P330 + P331", "statement": "IF SWALLOWED: Rinse mouth. Do NOT induce vomiting."}, {"code": "P303 + P361 + P353", "statement": "IF ON SKIN (or hair): Remove/ Take off immediately all. contaminated clothing. Rinse skin with water/ shower."}, {"code": "P304 + P340", "statement": "IF INHALED: Remove victim to fresh air and keep at rest in a. position comfortable for breathing."}, {"code": "P305 + P351 + P338", "statement": "IF IN EYES: Rinse cautiously with water for several minutes.. Remove contact lenses, if present and easy to do. Continue. rinsing."}, {"code": "P310", "statement": "Immediately call a POISON CENTER/ doctor."}, {"code": "P321", "statement": "Specific treatment (see supplemental first aid instructions on. this label)."}, {"code": "P363", "statement": "Wash contaminated clothing before reuse."}, {"code": "P405", "statement": "Store locked up."}, {"code": "P501", "statement": "Dispose of contents/ container to an approved waste disposal. plant."}, {"code": "H372", "statement": "Causes damage to organs (Thyroid) through prolonged or. repeated exposure if swallowed.. Precautionary statement(s)"}, {"code": "P260", "statement": "Do not breathe dust."}, {"code": "P264", "statement": "Wash skin thoroughly after handling."}, {"code": "P270", "statement": "Do not eat, drink or smoke when using this product."}, {"code": "P314", "statement": "Get medical advice/ attention if you feel unwell."}, {"code": "P501", "statement": "Dispose of contents/ container to an approved waste disposal. plant."}, {"code": "H302", "statement": "Harmful if swallowed."}, {"code": "H341", "statement": "Suspected of causing genetic defects."}, {"code": "H350", "statement": "May cause cancer."}, {"code": "H361", "statement": "Suspected of damaging fertility or the unborn child."}, {"code": "H372", "statement": "Causes damage to organs through prolonged or repeated. exposure."}, {"code": "H400", "statement": "Very toxic to aquatic life."}, {"code": "H413", "statement": "May cause long lasting harmful effects to aquatic life.. Precautionary statement(s)"}, {"code": "P201", "statement": "Obtain special instructions before use."}, {"code": "P202", "statement": "Do not handle until all safety precautions have been read and. understood."}, {"code": "P260", "statement": "Do not breathe dust/ fume/ gas/ mist/ vapors/ spray."}, {"code": "P264", "statement": "Wash skin thoroughly after handling."}, {"code": "P270", "statement": "Do not eat, drink or smoke when using this product."}, {"code": "P273", "statement": "Avoid release to the environment."}, {"code": "P280", "statement": "Wear protective gloves/ protective clothing/ eye protection/ face. protection."}, {"code": "P301 + P312 + P330", "statement": "IF SWALLOWED: Call a POISON CENTER/ doctor if you feel. unwell. Rinse mouth."}, {"code": "P308 + P313", "statement": "IF exposed or concerned: Get medical advice/ attention."}, {"code": "P391", "statement": "Collect spillage."}, {"code": "P405", "statement": "Store locked up."}, {"code": "P501", "statement": "Dispose of contents/ container to an approved waste disposal. plant."}]}, {"id": 15143, "product_number": "S429473", "CAS_number": "88-53-9", "product_name": "5-Amino-2-chlorotoluene-4-sulphonic acid", "product_brand": "Aldrich", "supplier": {"company": ":  Sigma-Aldrich Inc.", "location": "3050 SPRUCE ST. ST. LOUIS MO  63103. UNITED STATES", "tel": ":  +1 314 771-5765", "fax": ":  +1 800 325-5052"}, "formula": ":  C7H8ClNO3S", "mw": ":  221.66 g/mol", "ec": ":  201-839-7. TabulaTable(extraction_method=stream, page_number=2, top=425.0, bottom=483.0, left=80.0, right=558.0, width=478.0, height=58.0, data=\n+----------------------------------------+-------------------------------------+-------------+\n|Component                               |Classification                       |Concentration|\n+----------------------------------------+-------------------------------------+-------------+\n|5-Amino-2-chlorotoluene-4-sulphonic acid|                                     |             |\n+----------------------------------------+-------------------------------------+-------------+\n|5-Amino-2-chlorotoluene-4-sulphonic acid|Skin Corr. 1B; Eye Dam. 1; H314, H318|<= 100 %     |\n+----------------------------------------+-------------------------------------+-------------+\n, additional_ops=['strip_text', 'merge_rows', 'pull_down_to_empty'])", "appearance": "Form: solid", "odor": "No data available", "pH": "No data available", "melting_point": "Melting point/range: > 305 \u00b0C (> 581 \u00b0F). point/freezing point", "flash_point": "()No data available", "evaporation_rate": "No data available", "flammability": "No data available. gas)", "vapor_pressure": "No data available", "vapor_density": "No data available", "density": "No data available. Relative density. No data available", "water_solubility": "No data available", "partition_coefficient": "log Pow: -1.355. n-octanol/water", "autoignition": "No data available. temperature", "decomposition": "No data available. temperature", "viscosity": "No data available", "explosive_properties": "No data available", "oxidizing_properties": "No data available", "bulk_density": "No data available", "particle_size": "No data available", "statements": [{"code": "H314", "statement": "Causes severe skin burns and eye damage.. Precautionary statement(s)"}, {"code": "P260", "statement": "Do not breathe dusts or mists."}, {"code": "P264", "statement": "Wash skin thoroughly after handling."}, {"code": "P280", "statement": "Wear protective gloves/ protective clothing/ eye protection/ face. protection."}, {"code": "P301 + P330 + P331", "statement": "IF SWALLOWED: Rinse mouth. Do NOT induce vomiting."}, {"code": "P303 + P361 + P353", "statement": "IF ON SKIN (or hair): Remove/ Take off immediately all. contaminated clothing. Rinse skin with water/ shower."}, {"code": "P304 + P340", "statement": "IF INHALED: Remove victim to fresh air and keep at rest in a. position comfortable for breathing."}, {"code": "P305 + P351 + P338", "statement": "IF IN EYES: Rinse cautiously with water for several minutes.. Remove contact lenses, if present and easy to do. Continue. rinsing."}, {"code": "P310", "statement": "Immediately call a POISON CENTER/ doctor."}, {"code": "P321", "statement": "Specific treatment (see supplemental first aid instructions on. this label)."}, {"code": "P363", "statement": "Wash contaminated clothing before reuse."}, {"code": "P405", "statement": "Store locked up."}, {"code": "P501", "statement": "Dispose of contents/ container to an approved waste disposal. plant."}, {"code": "H372", "statement": "Causes damage to organs (Thyroid) through prolonged or. repeated exposure if swallowed.. Precautionary statement(s)"}, {"code": "P260", "statement": "Do not breathe dust."}, {"code": "P264", "statement": "Wash skin thoroughly after handling."}, {"code": "P270", "statement": "Do not eat, drink or smoke when using this product."}, {"code": "P314", "statement": "Get medical advice/ attention if you feel unwell."}, {"code": "P501", "statement": "Dispose of contents/ container to an approved waste disposal. plant."}, {"code": "H302", "statement": "Harmful if swallowed."}, {"code": "H341", "statement": "Suspected of causing genetic defects."}, {"code": "H350", "statement": "May cause cancer."}, {"code": "H361", "statement": "Suspected of damaging fertility or the unborn child."}, {"code": "H372", "statement": "Causes damage to organs through prolonged or repeated. exposure."}, {"code": "H400", "statement": "Very toxic to aquatic life."}, {"code": "H413", "statement": "May cause long lasting harmful effects to aquatic life.. Precautionary statement(s)"}, {"code": "P201", "statement": "Obtain special instructions before use."}, {"code": "P202", "statement": "Do not handle until all safety precautions have been read and. understood."}, {"code": "P260", "statement": "Do not breathe dust/ fume/ gas/ mist/ vapors/ spray."}, {"code": "P264", "statement": "Wash skin thoroughly after handling."}, {"code": "P270", "statement": "Do not eat, drink or smoke when using this product."}, {"code": "P273", "statement": "Avoid release to the environment."}, {"code": "P280", "statement": "Wear protective gloves/ protective clothing/ eye protection/ face. protection."}, {"code": "P301 + P312 + P330", "statement": "IF SWALLOWED: Call a POISON CENTER/ doctor if you feel. unwell. Rinse mouth."}, {"code": "P308 + P313", "statement": "IF exposed or concerned: Get medical advice/ attention."}, {"code": "P391", "statement": "Collect spillage."}, {"code": "P405", "statement": "Store locked up."}, {"code": "P501", "statement": "Dispose of contents/ container to an approved waste disposal. plant."}]}, {"id": 2048, "product_number": "PX1507", "CAS_number": "7681-11-0", "product_name": "Potassium Iodide Granular GR ACS", "product_brand": "Millipore", "supplier": {"company": ":  Sigma-Aldrich Inc.", "location": "3050 SPRUCE ST. ST. LOUIS MO  63103. UNITED STATES", "tel": ":  +1 314 771-5765", "fax": ":  +1 800 325-5052"}, "formula": ":  KI", "mw": ":  166.01 g/mol", "ec": ":  231-659-4. TabulaTable(extraction_method=stream, page_number=2, top=242.0, bottom=288.0, left=80.0, right=558.0, width=478.0, height=46.0, data=\n+----------------+---------------+-------------+\n|Component       |Classification |Concentration|\n+----------------+---------------+-------------+\n|potassium iodide|               |             |\n+----------------+---------------+-------------+\n|potassium iodide|STOT RE 1; H372|<= 100 %     |\n+----------------+---------------+-------------+\n, additional_ops=['strip_text', 'merge_rows', 'pull_down_to_empty'])", "appearance": "Form: solid. Color: off-white", "odor": "Not applicable", "pH": "ca.6.9 at 50 g/l at 20 \u00b0C (68 \u00b0F)", "melting_point": "Melting point: 680 \u00b0C (1256 \u00b0F). point/freezing point", "flash_point": "()Not applicable", "evaporation_rate": "No data available", "flammability": "The product is not flammable.. gas)", "vapor_pressure": "ca.1 hPa at 745 \u00b0C (1373 \u00b0F)", "vapor_density": "No data available", "density": "3.13 g/cm3 at 20 \u00b0C (68 \u00b0F). Relative density. No data available", "water_solubility": "ca.1,430 g/l at 25 \u00b0C (77 \u00b0F) - completely soluble", "partition_coefficient": "Not applicable for inorganic substances. n-octanol/water", "autoignition": "No data available. temperature", "decomposition": "No data available. temperature", "viscosity": "No data available", "explosive_properties": "No data available", "oxidizing_properties": "No data available", "bulk_density": "ca.1,500 kg/m3", "particle_size": "No data available", "statements": [{"code": "H314", "statement": "Causes severe skin burns and eye damage.. Precautionary statement(s)"}, {"code": "P260", "statement": "Do not breathe dusts or mists."}, {"code": "P264", "statement": "Wash skin thoroughly after handling."}, {"code": "P280", "statement": "Wear protective gloves/ protective clothing/ eye protection/ face. protection."}, {"code": "P301 + P330 + P331", "statement": "IF SWALLOWED: Rinse mouth. Do NOT induce vomiting."}, {"code": "P303 + P361 + P353", "statement": "IF ON SKIN (or hair): Remove/ Take off immediately all. contaminated clothing. Rinse skin with water/ shower."}, {"code": "P304 + P340", "statement": "IF INHALED: Remove victim to fresh air and keep at rest in a. position comfortable for breathing."}, {"code": "P305 + P351 + P338", "statement": "IF IN EYES: Rinse cautiously with water for several minutes.. Remove contact lenses, if present and easy to do. Continue. rinsing."}, {"code": "P310", "statement": "Immediately call a POISON CENTER/ doctor."}, {"code": "P321", "statement": "Specific treatment (see supplemental first aid instructions on. this label)."}, {"code": "P363", "statement": "Wash contaminated clothing before reuse."}, {"code": "P405", "statement": "Store locked up."}, {"code": "P501", "statement": "Dispose of contents/ container to an approved waste disposal. plant."}, {"code": "H372", "statement": "Causes damage to organs (Thyroid) through prolonged or. repeated exposure if swallowed.. Precautionary statement(s)"}, {"code": "P260", "statement": "Do not breathe dust."}, {"code": "P264", "statement": "Wash skin thoroughly after handling."}, {"code": "P270", "statement": "Do not eat, drink or smoke when using this product."}, {"code": "P314", "statement": "Get medical advice/ attention if you feel unwell."}, {"code": "P501", "statement": "Dispose of contents/ container to an approved waste disposal. plant."}, {"code": "H302", "statement": "Harmful if swallowed."}, {"code": "H341", "statement": "Suspected of causing genetic defects."}, {"code": "H350", "statement": "May cause cancer."}, {"code": "H361", "statement": "Suspected of damaging fertility or the unborn child."}, {"code": "H372", "statement": "Causes damage to organs through prolonged or repeated. exposure."}, {"code": "H400", "statement": "Very toxic to aquatic life."}, {"code": "H413", "statement": "May cause long lasting harmful effects to aquatic life.. Precautionary statement(s)"}, {"code": "P201", "statement": "Obtain special instructions before use."}, {"code": "P202", "statement": "Do not handle until all safety precautions have been read and. understood."}, {"code": "P260", "statement": "Do not breathe dust/ fume/ gas/ mist/ vapors/ spray."}, {"code": "P264", "statement": "Wash skin thoroughly after handling."}, {"code": "P270", "statement": "Do not eat, drink or smoke when using this product."}, {"code": "P273", "statement": "Avoid release to the environment."}, {"code": "P280", "statement": "Wear protective gloves/ protective clothing/ eye protection/ face. protection."}, {"code": "P301 + P312 + P330", "statement": "IF SWALLOWED: Call a POISON CENTER/ doctor if you feel. unwell. Rinse mouth."}, {"code": "P308 + P313", "statement": "IF exposed or concerned: Get medical advice/ attention."}, {"code": "P391", "statement": "Collect spillage."}, {"code": "P405", "statement": "Store locked up."}, {"code": "P501", "statement": "Dispose of contents/ container to an approved waste disposal. plant."}]}, {"id": 28055, "product_number": "1604009", "CAS_number": "13292-46-1", "product_name": "Rifampin, United States Pharmacopeia (USP)", "product_brand": "US Pharmacopeia", "supplier": {"company": ":  Sigma-Aldrich Inc.", "location": "3050 SPRUCE ST. ST. LOUIS MO  63103. UNITED STATES", "tel": ":  +1 314 771-5765", "fax": ":  +1 800 325-5052"}, "formula": "No data available", "mw": ":  822.94 g/mol", "ec": "No data available", "appearance": "Form: crystalline. Color: red", "odor": "No data available", "pH": "No data available", "melting_point": "Melting point/range: 184 - 185 \u00b0C (363 - 365 \u00b0F). point/freezing point", "flash_point": "()Not applicable", "evaporation_rate": "No data available", "flammability": "No data available", "vapor_pressure": "No data available", "vapor_density": "No data available", "density": "No data available", "water_solubility": "No data available", "partition_coefficient": "No data available", "autoignition": "No data available", "decomposition": "No data available", "viscosity": "No data available", "explosive_properties": "No data available", "oxidizing_properties": "No data available", "bulk_density": "No data available", "particle_size": "No data available", "statements": [{"code": "H314", "statement": "Causes severe skin burns and eye damage.. Precautionary statement(s)"}, {"code": "P260", "statement": "Do not breathe dusts or mists."}, {"code": "P264", "statement": "Wash skin thoroughly after handling."}, {"code": "P280", "statement": "Wear protective gloves/ protective clothing/ eye protection/ face. protection."}, {"code": "P301 + P330 + P331", "statement": "IF SWALLOWED: Rinse mouth. Do NOT induce vomiting."}, {"code": "P303 + P361 + P353", "statement": "IF ON SKIN (or hair): Remove/ Take off immediately all. contaminated clothing. Rinse skin with water/ shower."}, {"code": "P304 + P340", "statement": "IF INHALED: Remove victim to fresh air and keep at rest in a. position comfortable for breathing."}, {"code": "P305 + P351 + P338", "statement": "IF IN EYES: Rinse cautiously with water for several minutes.. Remove contact lenses, if present and easy to do. Continue. rinsing."}, {"code": "P310", "statement": "Immediately call a POISON CENTER/ doctor."}, {"code": "P321", "statement": "Specific treatment (see supplemental first aid instructions on. this label)."}, {"code": "P363", "statement": "Wash contaminated clothing before reuse."}, {"code": "P405", "statement": "Store locked up."}, {"code": "P501", "statement": "Dispose of contents/ container to an approved waste disposal. plant."}, {"code": "H372", "statement": "Causes damage to organs (Thyroid) through prolonged or. repeated exposure if swallowed.. Precautionary statement(s)"}, {"code": "P260", "statement": "Do not breathe dust."}, {"code": "P264", "statement": "Wash skin thoroughly after handling."}, {"code": "P270", "statement": "Do not eat, drink or smoke when using this product."}, {"code": "P314", "statement": "Get medical advice/ attention if you feel unwell."}, {"code": "P501", "statement": "Dispose of contents/ container to an approved waste disposal. plant."}, {"code": "H302", "statement": "Harmful if swallowed."}, {"code": "H341", "statement": "Suspected of causing genetic defects."}, {"code": "H350", "statement": "May cause cancer."}, {"code": "H361", "statement": "Suspected of damaging fertility or the unborn child."}, {"code": "H372", "statement": "Causes damage to organs through prolonged or repeated. exposure."}, {"code": "H400", "statement": "Very toxic to aquatic life."}, {"code": "H413", "statement": "May cause long lasting harmful effects to aquatic life.. Precautionary statement(s)"}, {"code": "P201", "statement": "Obtain special instructions before use."}, {"code": "P202", "statement": "Do not handle until all safety precautions have been read and. understood."}, {"code": "P260", "statement": "Do not breathe dust/ fume/ gas/ mist/ vapors/ spray."}, {"code": "P264", "statement": "Wash skin thoroughly after handling."}, {"code": "P270", "statement": "Do not eat, drink or smoke when using this product."}, {"code": "P273", "statement": "Avoid release to the environment."}, {"code": "P280", "statement": "Wear protective gloves/ protective clothing/ eye protection/ face. protection."}, {"code": "P301 + P312 + P330", "statement": "IF SWALLOWED: Call a POISON CENTER/ doctor if you feel. unwell. Rinse mouth."}, {"code": "P308 + P313", "statement": "IF exposed or concerned: Get medical advice/ attention."}, {"code": "P391", "statement": "Collect spillage."}, {"code": "P405", "statement": "Store locked up."}, {"code": "P501", "statement": "Dispose of contents/ container to an approved waste disposal. plant."}]}, {"id": 6992, "product_number": "217921", "CAS_number": "1306-23-6", "product_name": "Cadmium sulfide", "product_brand": "Aldrich", "supplier": {"company": ":  Sigma-Aldrich Inc.", "location": "3050 SPRUCE ST. ST. LOUIS MO  63103. UNITED STATES", "tel": ":  +1 314 771-5765", "fax": ":  +1 800 325-5052"}, "formula": ":  CdS", "mw": ":  144.48 g/mol", "ec": ":  215-147-8", "appearance": "Form: powder. Color: orange", "odor": "No data available", "pH": "No data available", "melting_point": "Melting point/range: 871 - 890 \u00b0C (1600 - 1634 \u00b0F) - OECD Test. point/freezing point. Guideline 102 - (sublimed)", "flash_point": "()Not applicable", "evaporation_rate": "No data available", "flammability": "The product is not flammable.. gas)", "vapor_pressure": "No data available", "vapor_density": "No data available", "density": "4.82 g/mL at 25 \u00b0C (77 \u00b0F) - lit.. Relative density. No data available", "water_solubility": "practically insoluble", "partition_coefficient": "Not applicable for inorganic substances. n-octanol/water", "autoignition": "No data available. temperature", "decomposition": "No data available. temperature", "viscosity": "No data available", "explosive_properties": "No data available", "oxidizing_properties": "No data available", "bulk_density": "No data available", "particle_size": "No data available", "statements": [{"code": "H314", "statement": "Causes severe skin burns and eye damage.. Precautionary statement(s)"}, {"code": "P260", "statement": "Do not breathe dusts or mists."}, {"code": "P264", "statement": "Wash skin thoroughly after handling."}, {"code": "P280", "statement": "Wear protective gloves/ protective clothing/ eye protection/ face. protection."}, {"code": "P301 + P330 + P331", "statement": "IF SWALLOWED: Rinse mouth. Do NOT induce vomiting."}, {"code": "P303 + P361 + P353", "statement": "IF ON SKIN (or hair): Remove/ Take off immediately all. contaminated clothing. Rinse skin with water/ shower."}, {"code": "P304 + P340", "statement": "IF INHALED: Remove victim to fresh air and keep at rest in a. position comfortable for breathing."}, {"code": "P305 + P351 + P338", "statement": "IF IN EYES: Rinse cautiously with water for several minutes.. Remove contact lenses, if present and easy to do. Continue. rinsing."}, {"code": "P310", "statement": "Immediately call a POISON CENTER/ doctor."}, {"code": "P321", "statement": "Specific treatment (see supplemental first aid instructions on. this label)."}, {"code": "P363", "statement": "Wash contaminated clothing before reuse."}, {"code": "P405", "statement": "Store locked up."}, {"code": "P501", "statement": "Dispose of contents/ container to an approved waste disposal. plant."}, {"code": "H372", "statement": "Causes damage to organs (Thyroid) through prolonged or. repeated exposure if swallowed.. Precautionary statement(s)"}, {"code": "P260", "statement": "Do not breathe dust."}, {"code": "P264", "statement": "Wash skin thoroughly after handling."}, {"code": "P270", "statement": "Do not eat, drink or smoke when using this product."}, {"code": "P314", "statement": "Get medical advice/ attention if you feel unwell."}, {"code": "P501", "statement": "Dispose of contents/ container to an approved waste disposal. plant."}, {"code": "H302", "statement": "Harmful if swallowed."}, {"code": "H341", "statement": "Suspected of causing genetic defects."}, {"code": "H350", "statement": "May cause cancer."}, {"code": "H361", "statement": "Suspected of damaging fertility or the unborn child."}, {"code": "H372", "statement": "Causes damage to organs through prolonged or repeated. exposure."}, {"code": "H400", "statement": "Very toxic to aquatic life."}, {"code": "H413", "statement": "May cause long lasting harmful effects to aquatic life.. Precautionary statement(s)"}, {"code": "P201", "statement": "Obtain special instructions before use."}, {"code": "P202", "statement": "Do not handle until all safety precautions have been read and. understood."}, {"code": "P260", "statement": "Do not breathe dust/ fume/ gas/ mist/ vapors/ spray."}, {"code": "P264", "statement": "Wash skin thoroughly after handling."}, {"code": "P270", "statement": "Do not eat, drink or smoke when using this product."}, {"code": "P273", "statement": "Avoid release to the environment."}, {"code": "P280", "statement": "Wear protective gloves/ protective clothing/ eye protection/ face. protection."}, {"code": "P301 + P312 + P330", "statement": "IF SWALLOWED: Call a POISON CENTER/ doctor if you feel. unwell. Rinse mouth."}, {"code": "P308 + P313", "statement": "IF exposed or concerned: Get medical advice/ attention."}, {"code": "P391", "statement": "Collect spillage."}, {"code": "P405", "statement": "Store locked up."}, {"code": "P501", "statement": "Dispose of contents/ container to an approved waste disposal. plant."}]}]