[{"id": 15183, "product_number": "233757", "CAS_number": "6712-98-7", "product_name": "1-[N,N-Bis(2-hydroxyethyl)amino]-2-", "product_brand": "Aldrich", "supplier": {"company": ":  Sigma-Aldrich Inc.", "location": "3050 SPRUCE ST. ST. LOUIS MO  63103. UNITED STATES", "tel": ":  +1 314 771-5765", "fax": ":  +1 800 325-5052"}, "formula": ":  C7H17NO3", "mw": ":  163.21 g/mol", "ec": ":  229-764-5. No components need to be disclosed according to the applicable regulations.", "appearance": "Form: liquid. Color: yellow", "odor": "No data available", "pH": "No data available", "melting_point": "Melting point/range: 31.5 - 36 \u00b0C (88.7 - 97 \u00b0F) - lit.. point/freezing point", "flash_point": "113 \u00b0C (235 \u00b0F) - closed cup", "evaporation_rate": "No data available", "flammability": "No data available. gas)", "vapor_pressure": "No data available", "vapor_density": "No data available", "density": "1.079 g/mL at 25 \u00b0C (77 \u00b0F) - lit.. Relative density. No data available", "water_solubility": "No data available", "partition_coefficient": "log Pow: -1.427. n-octanol/water", "autoignition": "No data available. temperature", "decomposition": "No data available. temperature", "viscosity": "No data available", "explosive_properties": "No data available", "oxidizing_properties": "No data available", "bulk_density": "No data available", "particle_size": "No data available", "statements": [{"code": "H302", "statement": "Harmful if swallowed."}, {"code": "H315", "statement": "Causes skin irritation."}, {"code": "H318", "statement": "Causes serious eye damage."}, {"code": "H335", "statement": "May cause respiratory irritation.. Precautionary statement(s)"}, {"code": "P261", "statement": "Avoid breathing dust/ fume/ gas/ mist/ vapours/ spray."}, {"code": "P264", "statement": "Wash skin thoroughly after handling."}, {"code": "P270", "statement": "Do not eat, drink or smoke when using this product."}, {"code": "P271", "statement": "Use only outdoors or in a well-ventilated area."}, {"code": "P280", "statement": "Wear protective gloves/ eye protection/ face protection."}, {"code": "P301 + P312", "statement": "IF SWALLOWED: Call a POISON CENTER/doctor if you feel. unwell."}, {"code": "P302 + P352", "statement": "IF ON SKIN: Wash with plenty of soap and water."}, {"code": "P304 + P340", "statement": "IF INHALED: Remove victim to fresh air and keep at rest in a. position comfortable for breathing."}, {"code": "P305 + P351 + P338", "statement": "IF IN EYES: Rinse cautiously with water for several minutes.. Remove contact lenses, if present and easy to do. Continue. rinsing."}, {"code": "P310", "statement": "Immediately call a POISON CENTER/doctor."}, {"code": "P321", "statement": "Specific treatment (see supplemental first aid instructions on. this label)."}, {"code": "P330", "statement": "Rinse mouth."}, {"code": "P332 + P313", "statement": "If skin irritation occurs: Get medical advice/ attention."}, {"code": "P362", "statement": "Take off contaminated clothing and wash before reuse."}, {"code": "P403 + P233", "statement": "Store in a well-ventilated place. Keep container tightly closed."}, {"code": "P405", "statement": "Store locked up."}, {"code": "P501", "statement": "Dispose of contents/ container to an approved waste disposal. plant."}, {"code": "H301", "statement": "Toxic if swallowed.. Precautionary statement(s)"}, {"code": "P264", "statement": "Wash skin thoroughly after handling."}, {"code": "P270", "statement": "Do not eat, drink or smoke when using this product."}, {"code": "P301 + P310 + P330", "statement": "IF SWALLOWED: Immediately call a POISON CENTER/doctor.. Rinse mouth."}, {"code": "P405", "statement": "Store locked up."}, {"code": "P501", "statement": "Dispose of contents/ container to an approved waste disposal. plant."}, {"code": "H319", "statement": "Causes serious eye irritation.. Precautionary statement(s)"}, {"code": "P264", "statement": "Wash skin thoroughly after handling."}, {"code": "H373", "statement": "May cause damage to organs through prolonged or repeated. exposure."}, {"code": "H410", "statement": "Very toxic to aquatic life with long lasting effects.. Precautionary statement(s)"}, {"code": "P260", "statement": "Do not breathe dust/ fume/ gas/ mist/ vapors/ spray."}, {"code": "P273", "statement": "Avoid release to the environment."}, {"code": "P314", "statement": "Get medical advice/ attention if you feel unwell."}, {"code": "P391", "statement": "Collect spillage."}, {"code": "P501", "statement": "Dispose of contents/ container to an approved waste disposal. plant."}]}, {"id": 46566, "product_number": "S810835", "CAS_number": "5957-90-4", "product_name": "2-(4-METHOXYPHENYL)PYRIDINE", "product_brand": "Aldrich", "supplier": {"company": ":  Sigma-Aldrich Inc.", "location": "3050 SPRUCE ST. ST. LOUIS MO  63103. UNITED STATES", "tel": ":  +1 314 771-5765", "fax": ":  +1 800 325-5052"}, "formula": ":  C12H11NO", "mw": ":  185.23 g/mol", "ec": "No data available", "appearance": "No data available", "odor": "No data available", "pH": "No data available", "melting_point": "No data available", "flash_point": "No data available", "evaporation_rate": "No data available", "flammability": "No data available", "vapor_pressure": "No data available", "vapor_density": "No data available", "density": "No data available", "water_solubility": "No data available", "partition_coefficient": "No data available", "autoignition": "No data available", "decomposition": "No data available", "viscosity": "No data available", "explosive_properties": "No data available", "oxidizing_properties": "No data available", "bulk_density": "No data available", "particle_size": "No data available", "statements": [{"code": "H302", "statement": "Harmful if swallowed."}, {"code": "H315", "statement": "Causes skin irritation."}, {"code": "H318", "statement": "Causes serious eye damage."}, {"code": "H335", "statement": "May cause respiratory irritation.. Precautionary statement(s)"}, {"code": "P261", "statement": "Avoid breathing dust/ fume/ gas/ mist/ vapours/ spray."}, {"code": "P264", "statement": "Wash skin thoroughly after handling."}, {"code": "P270", "statement": "Do not eat, drink or smoke when using this product."}, {"code": "P271", "statement": "Use only outdoors or in a well-ventilated area."}, {"code": "P280", "statement": "Wear protective gloves/ eye protection/ face protection."}, {"code": "P301 + P312", "statement": "IF SWALLOWED: Call a POISON CENTER/doctor if you feel. unwell."}, {"code": "P302 + P352", "statement": "IF ON SKIN: Wash with plenty of soap and water."}, {"code": "P304 + P340", "statement": "IF INHALED: Remove victim to fresh air and keep at rest in a. position comfortable for breathing."}, {"code": "P305 + P351 + P338", "statement": "IF IN EYES: Rinse cautiously with water for several minutes.. Remove contact lenses, if present and easy to do. Continue. rinsing."}, {"code": "P310", "statement": "Immediately call a POISON CENTER/doctor."}, {"code": "P321", "statement": "Specific treatment (see supplemental first aid instructions on. this label)."}, {"code": "P330", "statement": "Rinse mouth."}, {"code": "P332 + P313", "statement": "If skin irritation occurs: Get medical advice/ attention."}, {"code": "P362", "statement": "Take off contaminated clothing and wash before reuse."}, {"code": "P403 + P233", "statement": "Store in a well-ventilated place. Keep container tightly closed."}, {"code": "P405", "statement": "Store locked up."}, {"code": "P501", "statement": "Dispose of contents/ container to an approved waste disposal. plant."}, {"code": "H301", "statement": "Toxic if swallowed.. Precautionary statement(s)"}, {"code": "P264", "statement": "Wash skin thoroughly after handling."}, {"code": "P270", "statement": "Do not eat, drink or smoke when using this product."}, {"code": "P301 + P310 + P330", "statement": "IF SWALLOWED: Immediately call a POISON CENTER/doctor.. Rinse mouth."}, {"code": "P405", "statement": "Store locked up."}, {"code": "P501", "statement": "Dispose of contents/ container to an approved waste disposal. plant."}, {"code": "H319", "statement": "Causes serious eye irritation.. Precautionary statement(s)"}, {"code": "P264", "statement": "Wash skin thoroughly after handling."}, {"code": "H373", "statement": "May cause damage to organs through prolonged or repeated. exposure."}, {"code": "H410", "statement": "Very toxic to aquatic life with long lasting effects.. Precautionary statement(s)"}, {"code": "P260", "statement": "Do not breathe dust/ fume/ gas/ mist/ vapors/ spray."}, {"code": "P273", "statement": "Avoid release to the environment."}, {"code": "P314", "statement": "Get medical advice/ attention if you feel unwell."}, {"code": "P391", "statement": "Collect spillage."}, {"code": "P501", "statement": "Dispose of contents/ container to an approved waste disposal. plant."}]}, {"id": 28071, "product_number": "BML00245", "CAS_number": "13096-96-3", "product_name": "4-Chloro-1H-Indazole", "product_brand": "Aldrich", "supplier": {"company": ":  Sigma-Aldrich Inc.", "location": "3050 SPRUCE ST. ST. LOUIS MO  63103. UNITED STATES", "tel": ":  +1 314 771-5765", "fax": ":  +1 800 325-5052"}, "formula": ":  C7H5ClN2", "mw": ":  152.58 g/mol", "ec": "No data available", "appearance": "No data available", "odor": "No data available", "pH": "No data available", "melting_point": "No data available", "flash_point": "No data available", "evaporation_rate": "No data available", "flammability": "No data available", "vapor_pressure": "No data available", "vapor_density": "No data available", "density": "No data available", "water_solubility": "No data available", "partition_coefficient": "No data available", "autoignition": "No data available", "decomposition": "No data available", "viscosity": "No data available", "explosive_properties": "No data available", "oxidizing_properties": "No data available", "bulk_density": "No data available", "particle_size": "No data available", "statements": [{"code": "H302", "statement": "Harmful if swallowed."}, {"code": "H315", "statement": "Causes skin irritation."}, {"code": "H318", "statement": "Causes serious eye damage."}, {"code": "H335", "statement": "May cause respiratory irritation.. Precautionary statement(s)"}, {"code": "P261", "statement": "Avoid breathing dust/ fume/ gas/ mist/ vapours/ spray."}, {"code": "P264", "statement": "Wash skin thoroughly after handling."}, {"code": "P270", "statement": "Do not eat, drink or smoke when using this product."}, {"code": "P271", "statement": "Use only outdoors or in a well-ventilated area."}, {"code": "P280", "statement": "Wear protective gloves/ eye protection/ face protection."}, {"code": "P301 + P312", "statement": "IF SWALLOWED: Call a POISON CENTER/doctor if you feel. unwell."}, {"code": "P302 + P352", "statement": "IF ON SKIN: Wash with plenty of soap and water."}, {"code": "P304 + P340", "statement": "IF INHALED: Remove victim to fresh air and keep at rest in a. position comfortable for breathing."}, {"code": "P305 + P351 + P338", "statement": "IF IN EYES: Rinse cautiously with water for several minutes.. Remove contact lenses, if present and easy to do. Continue. rinsing."}, {"code": "P310", "statement": "Immediately call a POISON CENTER/doctor."}, {"code": "P321", "statement": "Specific treatment (see supplemental first aid instructions on. this label)."}, {"code": "P330", "statement": "Rinse mouth."}, {"code": "P332 + P313", "statement": "If skin irritation occurs: Get medical advice/ attention."}, {"code": "P362", "statement": "Take off contaminated clothing and wash before reuse."}, {"code": "P403 + P233", "statement": "Store in a well-ventilated place. Keep container tightly closed."}, {"code": "P405", "statement": "Store locked up."}, {"code": "P501", "statement": "Dispose of contents/ container to an approved waste disposal. plant."}, {"code": "H301", "statement": "Toxic if swallowed.. Precautionary statement(s)"}, {"code": "P264", "statement": "Wash skin thoroughly after handling."}, {"code": "P270", "statement": "Do not eat, drink or smoke when using this product."}, {"code": "P301 + P310 + P330", "statement": "IF SWALLOWED: Immediately call a POISON CENTER/doctor.. Rinse mouth."}, {"code": "P405", "statement": "Store locked up."}, {"code": "P501", "statement": "Dispose of contents/ container to an approved waste disposal. plant."}, {"code": "H319", "statement": "Causes serious eye irritation.. Precautionary statement(s)"}, {"code": "P264", "statement": "Wash skin thoroughly after handling."}, {"code": "H373", "statement": "May cause damage to organs through prolonged or repeated. exposure."}, {"code": "H410", "statement": "Very toxic to aquatic life with long lasting effects.. Precautionary statement(s)"}, {"code": "P260", "statement": "Do not breathe dust/ fume/ gas/ mist/ vapors/ spray."}, {"code": "P273", "statement": "Avoid release to the environment."}, {"code": "P314", "statement": "Get medical advice/ attention if you feel unwell."}, {"code": "P391", "statement": "Collect spillage."}, {"code": "P501", "statement": "Dispose of contents/ container to an approved waste disposal. plant."}]}, {"id": 15196, "product_number": "PH010656", "CAS_number": "18457-86-8", "product_name": "N-(2-Methylphenyl)benzenesulfonamide", "product_brand": "Aldrich", "supplier": {"company": ":  Sigma-Aldrich Inc.", "location": "3050 SPRUCE ST. ST. LOUIS MO  63103. UNITED STATES", "tel": ":  +1 314 771-5765", "fax": ":  +1 800 325-5052"}, "formula": ":  C13H13NO2S", "mw": ":  247,32 g/mol", "ec": "No data available", "appearance": "Form: solid", "odor": "No data available", "pH": "No data available", "melting_point": "No data available. point/freezing point", "flash_point": "No data available", "evaporation_rate": "No data available", "flammability": "No data available. gas)", "vapor_pressure": "No data available", "vapor_density": "No data available", "density": "No data available", "water_solubility": "No data available", "partition_coefficient": "log Pow: 2,378. n-octanol/water", "autoignition": "No data available. temperature", "decomposition": "No data available. temperature", "viscosity": "No data available", "explosive_properties": "No data available", "oxidizing_properties": "No data available", "bulk_density": "No data available", "particle_size": "No data available", "statements": [{"code": "H302", "statement": "Harmful if swallowed."}, {"code": "H315", "statement": "Causes skin irritation."}, {"code": "H318", "statement": "Causes serious eye damage."}, {"code": "H335", "statement": "May cause respiratory irritation.. Precautionary statement(s)"}, {"code": "P261", "statement": "Avoid breathing dust/ fume/ gas/ mist/ vapours/ spray."}, {"code": "P264", "statement": "Wash skin thoroughly after handling."}, {"code": "P270", "statement": "Do not eat, drink or smoke when using this product."}, {"code": "P271", "statement": "Use only outdoors or in a well-ventilated area."}, {"code": "P280", "statement": "Wear protective gloves/ eye protection/ face protection."}, {"code": "P301 + P312", "statement": "IF SWALLOWED: Call a POISON CENTER/doctor if you feel. unwell."}, {"code": "P302 + P352", "statement": "IF ON SKIN: Wash with plenty of soap and water."}, {"code": "P304 + P340", "statement": "IF INHALED: Remove victim to fresh air and keep at rest in a. position comfortable for breathing."}, {"code": "P305 + P351 + P338", "statement": "IF IN EYES: Rinse cautiously with water for several minutes.. Remove contact lenses, if present and easy to do. Continue. rinsing."}, {"code": "P310", "statement": "Immediately call a POISON CENTER/doctor."}, {"code": "P321", "statement": "Specific treatment (see supplemental first aid instructions on. this label)."}, {"code": "P330", "statement": "Rinse mouth."}, {"code": "P332 + P313", "statement": "If skin irritation occurs: Get medical advice/ attention."}, {"code": "P362", "statement": "Take off contaminated clothing and wash before reuse."}, {"code": "P403 + P233", "statement": "Store in a well-ventilated place. Keep container tightly closed."}, {"code": "P405", "statement": "Store locked up."}, {"code": "P501", "statement": "Dispose of contents/ container to an approved waste disposal. plant."}, {"code": "H301", "statement": "Toxic if swallowed.. Precautionary statement(s)"}, {"code": "P264", "statement": "Wash skin thoroughly after handling."}, {"code": "P270", "statement": "Do not eat, drink or smoke when using this product."}, {"code": "P301 + P310 + P330", "statement": "IF SWALLOWED: Immediately call a POISON CENTER/doctor.. Rinse mouth."}, {"code": "P405", "statement": "Store locked up."}, {"code": "P501", "statement": "Dispose of contents/ container to an approved waste disposal. plant."}, {"code": "H319", "statement": "Causes serious eye irritation.. Precautionary statement(s)"}, {"code": "P264", "statement": "Wash skin thoroughly after handling."}, {"code": "H373", "statement": "May cause damage to organs through prolonged or repeated. exposure."}, {"code": "H410", "statement": "Very toxic to aquatic life with long lasting effects.. Precautionary statement(s)"}, {"code": "P260", "statement": "Do not breathe dust/ fume/ gas/ mist/ vapors/ spray."}, {"code": "P273", "statement": "Avoid release to the environment."}, {"code": "P314", "statement": "Get medical advice/ attention if you feel unwell."}, {"code": "P391", "statement": "Collect spillage."}, {"code": "P501", "statement": "Dispose of contents/ container to an approved waste disposal. plant."}]}, {"id": 20525, "product_number": "Y0000621", "CAS_number": "70024-40-7", "product_name": "Terazosin hydrochloride dihydrate", "product_brand": "Sigma-Aldrich", "supplier": {"company": ":  Sigma-Aldrich Inc.", "location": "3050 SPRUCE ST. ST. LOUIS MO  63103. UNITED STATES", "tel": ":  +1 314 771-5765", "fax": ":  +1 800 325-5052"}, "formula": ":  C19H25N5O4 \u00b7 HCl \u00b7 2H2O", "mw": ":  459.92 g/mol", "ec": ":  629-697-5. TabulaTable(extraction_method=stream, page_number=2, top=242.0, bottom=300.0, left=80.0, right=558.0, width=478.0, height=58.0, data=\n+-------------------------------------------------------------------------------------------------------------------------------------+-------------+\n|Component Classification                                                                                                             |Concentration|\n+-------------------------------------------------------------------------------------------------------------------------------------+-------------+\n|1-(4-Amino-6,7-dimethoxy-2-quinazolinyl)-4-[(tetrahydro-2- furanyl)carbonyl]piperazine hydrochloride dihydrate, Terazosin hydrochlori|             |\n+-------------------------------------------------------------------------------------------------------------------------------------+-------------+\n|Eye Irrit. 2A; H319                                                                                                                  |<= 100 %     |\n+-------------------------------------------------------------------------------------------------------------------------------------+-------------+\n, additional_ops=['strip_text', 'merge_rows', 'pull_down_to_empty'])", "appearance": "Form: solid", "odor": "No data available", "pH": "No data available", "melting_point": "Melting point/range: 271 - 274 \u00b0C (520 - 525 \u00b0F). point/freezing point", "flash_point": "()Not applicable", "evaporation_rate": "No data available", "flammability": "No data available. gas)", "vapor_pressure": "No data available", "vapor_density": "No data available", "density": "No data available. Relative density. No data available", "water_solubility": "No data available", "partition_coefficient": "No data available. n-octanol/water", "autoignition": "No data available. temperature", "decomposition": "No data available. temperature", "viscosity": "No data available", "explosive_properties": "No data available", "oxidizing_properties": "No data available", "bulk_density": "No data available", "particle_size": "No data available", "statements": [{"code": "H302", "statement": "Harmful if swallowed."}, {"code": "H315", "statement": "Causes skin irritation."}, {"code": "H318", "statement": "Causes serious eye damage."}, {"code": "H335", "statement": "May cause respiratory irritation.. Precautionary statement(s)"}, {"code": "P261", "statement": "Avoid breathing dust/ fume/ gas/ mist/ vapours/ spray."}, {"code": "P264", "statement": "Wash skin thoroughly after handling."}, {"code": "P270", "statement": "Do not eat, drink or smoke when using this product."}, {"code": "P271", "statement": "Use only outdoors or in a well-ventilated area."}, {"code": "P280", "statement": "Wear protective gloves/ eye protection/ face protection."}, {"code": "P301 + P312", "statement": "IF SWALLOWED: Call a POISON CENTER/doctor if you feel. unwell."}, {"code": "P302 + P352", "statement": "IF ON SKIN: Wash with plenty of soap and water."}, {"code": "P304 + P340", "statement": "IF INHALED: Remove victim to fresh air and keep at rest in a. position comfortable for breathing."}, {"code": "P305 + P351 + P338", "statement": "IF IN EYES: Rinse cautiously with water for several minutes.. Remove contact lenses, if present and easy to do. Continue. rinsing."}, {"code": "P310", "statement": "Immediately call a POISON CENTER/doctor."}, {"code": "P321", "statement": "Specific treatment (see supplemental first aid instructions on. this label)."}, {"code": "P330", "statement": "Rinse mouth."}, {"code": "P332 + P313", "statement": "If skin irritation occurs: Get medical advice/ attention."}, {"code": "P362", "statement": "Take off contaminated clothing and wash before reuse."}, {"code": "P403 + P233", "statement": "Store in a well-ventilated place. Keep container tightly closed."}, {"code": "P405", "statement": "Store locked up."}, {"code": "P501", "statement": "Dispose of contents/ container to an approved waste disposal. plant."}, {"code": "H301", "statement": "Toxic if swallowed.. Precautionary statement(s)"}, {"code": "P264", "statement": "Wash skin thoroughly after handling."}, {"code": "P270", "statement": "Do not eat, drink or smoke when using this product."}, {"code": "P301 + P310 + P330", "statement": "IF SWALLOWED: Immediately call a POISON CENTER/doctor.. Rinse mouth."}, {"code": "P405", "statement": "Store locked up."}, {"code": "P501", "statement": "Dispose of contents/ container to an approved waste disposal. plant."}, {"code": "H319", "statement": "Causes serious eye irritation.. Precautionary statement(s)"}, {"code": "P264", "statement": "Wash skin thoroughly after handling."}, {"code": "H373", "statement": "May cause damage to organs through prolonged or repeated. exposure."}, {"code": "H410", "statement": "Very toxic to aquatic life with long lasting effects.. Precautionary statement(s)"}, {"code": "P260", "statement": "Do not breathe dust/ fume/ gas/ mist/ vapors/ spray."}, {"code": "P273", "statement": "Avoid release to the environment."}, {"code": "P314", "statement": "Get medical advice/ attention if you feel unwell."}, {"code": "P391", "statement": "Collect spillage."}, {"code": "P501", "statement": "Dispose of contents/ container to an approved waste disposal. plant."}]}, {"id": 46765, "product_number": "35588", "CAS_number": "16605-91-7", "product_name": "PCB No 5", "product_brand": "Sigma-Aldrich", "supplier": {"company": ":  Sigma-Aldrich Inc.", "location": "3050 SPRUCE ST. ST. LOUIS MO  63103. UNITED STATES", "tel": ":  +1 314 771-5765", "fax": ":  +1 800 325-5052"}, "formula": ":  C12H8Cl2", "mw": ":  223.10 g/mol", "ec": ":  215-648-1", "appearance": "No data available", "odor": "No data available", "pH": "No data available", "melting_point": "No data available", "flash_point": "No data available", "evaporation_rate": "No data available", "flammability": "No data available", "vapor_pressure": "No data available", "vapor_density": "No data available", "density": "No data available", "water_solubility": "No data available", "partition_coefficient": "No data available", "autoignition": "No data available", "decomposition": "No data available", "viscosity": "No data available", "explosive_properties": "No data available", "oxidizing_properties": "No data available", "bulk_density": "No data available", "particle_size": "No data available", "statements": [{"code": "H302", "statement": "Harmful if swallowed."}, {"code": "H315", "statement": "Causes skin irritation."}, {"code": "H318", "statement": "Causes serious eye damage."}, {"code": "H335", "statement": "May cause respiratory irritation.. Precautionary statement(s)"}, {"code": "P261", "statement": "Avoid breathing dust/ fume/ gas/ mist/ vapours/ spray."}, {"code": "P264", "statement": "Wash skin thoroughly after handling."}, {"code": "P270", "statement": "Do not eat, drink or smoke when using this product."}, {"code": "P271", "statement": "Use only outdoors or in a well-ventilated area."}, {"code": "P280", "statement": "Wear protective gloves/ eye protection/ face protection."}, {"code": "P301 + P312", "statement": "IF SWALLOWED: Call a POISON CENTER/doctor if you feel. unwell."}, {"code": "P302 + P352", "statement": "IF ON SKIN: Wash with plenty of soap and water."}, {"code": "P304 + P340", "statement": "IF INHALED: Remove victim to fresh air and keep at rest in a. position comfortable for breathing."}, {"code": "P305 + P351 + P338", "statement": "IF IN EYES: Rinse cautiously with water for several minutes.. Remove contact lenses, if present and easy to do. Continue. rinsing."}, {"code": "P310", "statement": "Immediately call a POISON CENTER/doctor."}, {"code": "P321", "statement": "Specific treatment (see supplemental first aid instructions on. this label)."}, {"code": "P330", "statement": "Rinse mouth."}, {"code": "P332 + P313", "statement": "If skin irritation occurs: Get medical advice/ attention."}, {"code": "P362", "statement": "Take off contaminated clothing and wash before reuse."}, {"code": "P403 + P233", "statement": "Store in a well-ventilated place. Keep container tightly closed."}, {"code": "P405", "statement": "Store locked up."}, {"code": "P501", "statement": "Dispose of contents/ container to an approved waste disposal. plant."}, {"code": "H301", "statement": "Toxic if swallowed.. Precautionary statement(s)"}, {"code": "P264", "statement": "Wash skin thoroughly after handling."}, {"code": "P270", "statement": "Do not eat, drink or smoke when using this product."}, {"code": "P301 + P310 + P330", "statement": "IF SWALLOWED: Immediately call a POISON CENTER/doctor.. Rinse mouth."}, {"code": "P405", "statement": "Store locked up."}, {"code": "P501", "statement": "Dispose of contents/ container to an approved waste disposal. plant."}, {"code": "H319", "statement": "Causes serious eye irritation.. Precautionary statement(s)"}, {"code": "P264", "statement": "Wash skin thoroughly after handling."}, {"code": "H373", "statement": "May cause damage to organs through prolonged or repeated. exposure."}, {"code": "H410", "statement": "Very toxic to aquatic life with long lasting effects.. Precautionary statement(s)"}, {"code": "P260", "statement": "Do not breathe dust/ fume/ gas/ mist/ vapors/ spray."}, {"code": "P273", "statement": "Avoid release to the environment."}, {"code": "P314", "statement": "Get medical advice/ attention if you feel unwell."}, {"code": "P391", "statement": "Collect spillage."}, {"code": "P501", "statement": "Dispose of contents/ container to an approved waste disposal. plant."}]}]