[{"id": 1660, "product_number": "445215", "CAS_number": "3900-89-8", "product_name": "2-Chlorophenylboronic acid", "product_brand": "Aldrich", "supplier": {"company": ":  Sigma-Aldrich Inc.", "location": "3050 SPRUCE ST. ST. LOUIS MO  63103. UNITED STATES", "tel": ":  +1 314 771-5765", "fax": ":  +1 800 325-5052"}, "formula": ":  C6H6BClO2", "mw": ":  156.37 g/mol", "ec": "No data available", "appearance": "Form: solid", "odor": "No data available", "pH": "No data available", "melting_point": "Melting point/range: 92 - 102 \u00b0C (198 - 216 \u00b0F) - lit.. point/freezing point", "flash_point": "()No data available", "evaporation_rate": "No data available", "flammability": "No data available. gas)", "vapor_pressure": "No data available", "vapor_density": "No data available", "density": "No data available. Relative density. No data available", "water_solubility": "No data available", "partition_coefficient": "No data available. n-octanol/water", "autoignition": "No data available. temperature", "decomposition": "No data available. temperature", "viscosity": "No data available", "explosive_properties": "No data available", "oxidizing_properties": "No data available", "bulk_density": "No data available", "particle_size": "No data available", "statements": [{"code": "H302", "statement": "Harmful if swallowed."}, {"code": "H315", "statement": "Causes skin irritation."}, {"code": "H318", "statement": "Causes serious eye damage."}, {"code": "H335", "statement": "May cause respiratory irritation."}, {"code": "H410", "statement": "Very toxic to aquatic life with long lasting effects.. Precautionary statement(s)"}, {"code": "P261", "statement": "Avoid breathing dust/ fume/ gas/ mist/ vapours/ spray."}, {"code": "P264", "statement": "Wash skin thoroughly after handling."}, {"code": "P270", "statement": "Do not eat, drink or smoke when using this product."}, {"code": "P271", "statement": "Use only outdoors or in a well-ventilated area."}, {"code": "P273", "statement": "Avoid release to the environment."}, {"code": "P280", "statement": "Wear protective gloves/ eye protection/ face protection."}, {"code": "P301 + P312 + P330", "statement": "IF SWALLOWED: Call a POISON CENTER/doctor if you feel. unwell. Rinse mouth."}, {"code": "P302 + P352", "statement": "IF ON SKIN: Wash with plenty of soap and water."}, {"code": "P304 + P340 + P312", "statement": "IF INHALED: Remove person to fresh air and keep comfortable. for breathing. Call a POISON CENTER/doctor if you feel unwell."}, {"code": "P305 + P351 + P338 +", "statement": "IF IN EYES: Rinse cautiously with water for several minutes."}, {"code": "P310", "statement": "Remove contact lenses, if present and easy to do. Continue. rinsing. Immediately call a POISON CENTER/doctor."}, {"code": "P332 + P313", "statement": "If skin irritation occurs: Get medical advice/ attention."}, {"code": "P362", "statement": "Take off contaminated clothing and wash before reuse."}, {"code": "P391", "statement": "Collect spillage."}, {"code": "P403 + P233", "statement": "Store in a well-ventilated place. Keep container tightly closed."}, {"code": "P405", "statement": "Store locked up."}, {"code": "P501", "statement": "Dispose of contents/ container to an approved waste disposal. plant."}, {"code": "H302 + H312 + H332", "statement": "Harmful if swallowed, in contact with skin or if inhaled."}, {"code": "H315", "statement": "Causes skin irritation."}, {"code": "H319", "statement": "Causes serious eye irritation."}, {"code": "H335", "statement": "May cause respiratory irritation.. Precautionary statement(s)"}, {"code": "P261", "statement": "Avoid breathing dust/ fume/ gas/ mist/ vapors/ spray."}, {"code": "P264", "statement": "Wash skin thoroughly after handling."}, {"code": "P270", "statement": "Do not eat, drink or smoke when using this product."}, {"code": "P271", "statement": "Use only outdoors or in a well-ventilated area."}, {"code": "P280", "statement": "Wear protective gloves/ protective clothing/ eye protection/ face. protection."}, {"code": "P301 + P312 + P330", "statement": "IF SWALLOWED: Call a POISON CENTER/ doctor if you feel. unwell. Rinse mouth."}, {"code": "P302 + P352 + P312", "statement": "IF ON SKIN: Wash with plenty of water.Call a POISON CENTER/. doctor if you feel unwell."}, {"code": "P304 + P340 + P312", "statement": "IF INHALED: Remove person to fresh air and keep comfortable. for breathing. Call a POISON CENTER/ doctor if you feel unwell."}, {"code": "P305 + P351 + P338", "statement": "IF IN EYES: Rinse cautiously with water for several minutes.. Remove contact lenses, if present and easy to do. Continue. rinsing."}, {"code": "P332 + P313", "statement": "If skin irritation occurs: Get medical advice/ attention."}, {"code": "P337 + P313", "statement": "If eye irritation persists: Get medical advice/ attention."}, {"code": "P362", "statement": "Take off contaminated clothing and wash before reuse."}, {"code": "P403 + P233", "statement": "Store in a well-ventilated place. Keep container tightly closed."}, {"code": "P405", "statement": "Store locked up."}, {"code": "P501", "statement": "Dispose of contents/ container to an approved waste disposal. plant."}]}, {"id": 1693, "product_number": "681725", "CAS_number": "22047-88-7", "product_name": "(2-Benzyloxyphenyl)acetic acid", "product_brand": "Aldrich", "supplier": {"company": ":  Sigma-Aldrich Inc.", "location": "3050 SPRUCE ST. ST. LOUIS MO  63103. UNITED STATES", "tel": ":  +1 314 771-5765", "fax": ":  +1 800 325-5052"}, "formula": ":  C15H14O3", "mw": ":  242.27 g/mol", "ec": "No data available", "appearance": "Form: powder. Colour: beige", "odor": "No data available", "pH": "No data available", "melting_point": "Melting point/range: 91 - 95 \u00b0C (196 - 203 \u00b0F). point/freezing point", "flash_point": "()No data available", "evaporation_rate": "No data available", "flammability": "No data available. gas)", "vapor_pressure": "No data available", "vapor_density": "No data available", "density": "No data available", "water_solubility": "No data available", "partition_coefficient": "log Pow: 2.836. n-octanol/water", "autoignition": "No data available", "decomposition": "No data available. temperature", "viscosity": "No data available", "explosive_properties": "No data available", "oxidizing_properties": "No data available", "bulk_density": "No data available", "particle_size": "No data available", "statements": [{"code": "H302", "statement": "Harmful if swallowed."}, {"code": "H315", "statement": "Causes skin irritation."}, {"code": "H318", "statement": "Causes serious eye damage."}, {"code": "H335", "statement": "May cause respiratory irritation."}, {"code": "H410", "statement": "Very toxic to aquatic life with long lasting effects.. Precautionary statement(s)"}, {"code": "P261", "statement": "Avoid breathing dust/ fume/ gas/ mist/ vapours/ spray."}, {"code": "P264", "statement": "Wash skin thoroughly after handling."}, {"code": "P270", "statement": "Do not eat, drink or smoke when using this product."}, {"code": "P271", "statement": "Use only outdoors or in a well-ventilated area."}, {"code": "P273", "statement": "Avoid release to the environment."}, {"code": "P280", "statement": "Wear protective gloves/ eye protection/ face protection."}, {"code": "P301 + P312 + P330", "statement": "IF SWALLOWED: Call a POISON CENTER/doctor if you feel. unwell. Rinse mouth."}, {"code": "P302 + P352", "statement": "IF ON SKIN: Wash with plenty of soap and water."}, {"code": "P304 + P340 + P312", "statement": "IF INHALED: Remove person to fresh air and keep comfortable. for breathing. Call a POISON CENTER/doctor if you feel unwell."}, {"code": "P305 + P351 + P338 +", "statement": "IF IN EYES: Rinse cautiously with water for several minutes."}, {"code": "P310", "statement": "Remove contact lenses, if present and easy to do. Continue. rinsing. Immediately call a POISON CENTER/doctor."}, {"code": "P332 + P313", "statement": "If skin irritation occurs: Get medical advice/ attention."}, {"code": "P362", "statement": "Take off contaminated clothing and wash before reuse."}, {"code": "P391", "statement": "Collect spillage."}, {"code": "P403 + P233", "statement": "Store in a well-ventilated place. Keep container tightly closed."}, {"code": "P405", "statement": "Store locked up."}, {"code": "P501", "statement": "Dispose of contents/ container to an approved waste disposal. plant."}, {"code": "H302 + H312 + H332", "statement": "Harmful if swallowed, in contact with skin or if inhaled."}, {"code": "H315", "statement": "Causes skin irritation."}, {"code": "H319", "statement": "Causes serious eye irritation."}, {"code": "H335", "statement": "May cause respiratory irritation.. Precautionary statement(s)"}, {"code": "P261", "statement": "Avoid breathing dust/ fume/ gas/ mist/ vapors/ spray."}, {"code": "P264", "statement": "Wash skin thoroughly after handling."}, {"code": "P270", "statement": "Do not eat, drink or smoke when using this product."}, {"code": "P271", "statement": "Use only outdoors or in a well-ventilated area."}, {"code": "P280", "statement": "Wear protective gloves/ protective clothing/ eye protection/ face. protection."}, {"code": "P301 + P312 + P330", "statement": "IF SWALLOWED: Call a POISON CENTER/ doctor if you feel. unwell. Rinse mouth."}, {"code": "P302 + P352 + P312", "statement": "IF ON SKIN: Wash with plenty of water.Call a POISON CENTER/. doctor if you feel unwell."}, {"code": "P304 + P340 + P312", "statement": "IF INHALED: Remove person to fresh air and keep comfortable. for breathing. Call a POISON CENTER/ doctor if you feel unwell."}, {"code": "P305 + P351 + P338", "statement": "IF IN EYES: Rinse cautiously with water for several minutes.. Remove contact lenses, if present and easy to do. Continue. rinsing."}, {"code": "P332 + P313", "statement": "If skin irritation occurs: Get medical advice/ attention."}, {"code": "P337 + P313", "statement": "If eye irritation persists: Get medical advice/ attention."}, {"code": "P362", "statement": "Take off contaminated clothing and wash before reuse."}, {"code": "P403 + P233", "statement": "Store in a well-ventilated place. Keep container tightly closed."}, {"code": "P405", "statement": "Store locked up."}, {"code": "P501", "statement": "Dispose of contents/ container to an approved waste disposal. plant."}]}, {"id": 15212, "product_number": "M0600905", "CAS_number": "1672-58-8", "product_name": "Metamizole impurity A", "product_brand": "Sigma-Aldrich", "supplier": {"company": ":  Sigma-Aldrich Inc.", "location": "3050 SPRUCE ST. ST. LOUIS MO  63103. UNITED STATES", "tel": ":  +1 314 771-5765", "fax": ":  +1 800 325-5052"}, "formula": ":  C12H13N3O2", "mw": ":  231,25 g/mol", "ec": "No data available", "appearance": "No data available", "odor": "odorless", "pH": "No data available", "melting_point": "190 - 194 \u00b0C. point/freezing point", "flash_point": "No data available", "evaporation_rate": "No data available", "flammability": "gas)", "vapor_pressure": "No data available", "vapor_density": "No data available", "density": "No data available. Relative density. No data available", "water_solubility": "No data available", "partition_coefficient": "log Pow: -0,144. n-octanol/water", "autoignition": "No data available. temperature", "decomposition": "No data available. temperature", "viscosity": "Viscosity, kinematic: No data available. Viscosity, dynamic: No data available", "explosive_properties": "No data available", "oxidizing_properties": "No data available", "bulk_density": "No data available", "particle_size": "No data available", "statements": [{"code": "H302", "statement": "Harmful if swallowed."}, {"code": "H315", "statement": "Causes skin irritation."}, {"code": "H318", "statement": "Causes serious eye damage."}, {"code": "H335", "statement": "May cause respiratory irritation."}, {"code": "H410", "statement": "Very toxic to aquatic life with long lasting effects.. Precautionary statement(s)"}, {"code": "P261", "statement": "Avoid breathing dust/ fume/ gas/ mist/ vapours/ spray."}, {"code": "P264", "statement": "Wash skin thoroughly after handling."}, {"code": "P270", "statement": "Do not eat, drink or smoke when using this product."}, {"code": "P271", "statement": "Use only outdoors or in a well-ventilated area."}, {"code": "P273", "statement": "Avoid release to the environment."}, {"code": "P280", "statement": "Wear protective gloves/ eye protection/ face protection."}, {"code": "P301 + P312 + P330", "statement": "IF SWALLOWED: Call a POISON CENTER/doctor if you feel. unwell. Rinse mouth."}, {"code": "P302 + P352", "statement": "IF ON SKIN: Wash with plenty of soap and water."}, {"code": "P304 + P340 + P312", "statement": "IF INHALED: Remove person to fresh air and keep comfortable. for breathing. Call a POISON CENTER/doctor if you feel unwell."}, {"code": "P305 + P351 + P338 +", "statement": "IF IN EYES: Rinse cautiously with water for several minutes."}, {"code": "P310", "statement": "Remove contact lenses, if present and easy to do. Continue. rinsing. Immediately call a POISON CENTER/doctor."}, {"code": "P332 + P313", "statement": "If skin irritation occurs: Get medical advice/ attention."}, {"code": "P362", "statement": "Take off contaminated clothing and wash before reuse."}, {"code": "P391", "statement": "Collect spillage."}, {"code": "P403 + P233", "statement": "Store in a well-ventilated place. Keep container tightly closed."}, {"code": "P405", "statement": "Store locked up."}, {"code": "P501", "statement": "Dispose of contents/ container to an approved waste disposal. plant."}, {"code": "H302 + H312 + H332", "statement": "Harmful if swallowed, in contact with skin or if inhaled."}, {"code": "H315", "statement": "Causes skin irritation."}, {"code": "H319", "statement": "Causes serious eye irritation."}, {"code": "H335", "statement": "May cause respiratory irritation.. Precautionary statement(s)"}, {"code": "P261", "statement": "Avoid breathing dust/ fume/ gas/ mist/ vapors/ spray."}, {"code": "P264", "statement": "Wash skin thoroughly after handling."}, {"code": "P270", "statement": "Do not eat, drink or smoke when using this product."}, {"code": "P271", "statement": "Use only outdoors or in a well-ventilated area."}, {"code": "P280", "statement": "Wear protective gloves/ protective clothing/ eye protection/ face. protection."}, {"code": "P301 + P312 + P330", "statement": "IF SWALLOWED: Call a POISON CENTER/ doctor if you feel. unwell. Rinse mouth."}, {"code": "P302 + P352 + P312", "statement": "IF ON SKIN: Wash with plenty of water.Call a POISON CENTER/. doctor if you feel unwell."}, {"code": "P304 + P340 + P312", "statement": "IF INHALED: Remove person to fresh air and keep comfortable. for breathing. Call a POISON CENTER/ doctor if you feel unwell."}, {"code": "P305 + P351 + P338", "statement": "IF IN EYES: Rinse cautiously with water for several minutes.. Remove contact lenses, if present and easy to do. Continue. rinsing."}, {"code": "P332 + P313", "statement": "If skin irritation occurs: Get medical advice/ attention."}, {"code": "P337 + P313", "statement": "If eye irritation persists: Get medical advice/ attention."}, {"code": "P362", "statement": "Take off contaminated clothing and wash before reuse."}, {"code": "P403 + P233", "statement": "Store in a well-ventilated place. Keep container tightly closed."}, {"code": "P405", "statement": "Store locked up."}, {"code": "P501", "statement": "Dispose of contents/ container to an approved waste disposal. plant."}]}, {"id": 46623, "product_number": "1305303", "CAS_number": "506-52-5", "product_name": "Hexacosanol, United States Pharmacopeia", "product_brand": "US Pharmacopeia", "supplier": {"company": ":  Sigma-Aldrich Inc.", "location": "3050 SPRUCE ST. ST. LOUIS MO  63103. UNITED STATES", "tel": ":  +1 314 771-5765", "fax": ":  +1 800 325-5052"}, "formula": "No data available", "mw": ":  382,72 g/mol", "ec": "No data available", "appearance": "No data available", "odor": "No data available", "pH": "No data available", "melting_point": "Melting point/range: 79 - 81 \u00b0C. point/freezing point", "flash_point": "No data available", "evaporation_rate": "No data available", "flammability": "No data available. gas)", "vapor_pressure": "No data available", "vapor_density": "No data available", "density": "No data available. Relative density. No data available", "water_solubility": "No data available", "partition_coefficient": "No data available. n-octanol/water", "autoignition": "No data available. temperature", "decomposition": "No data available. temperature", "viscosity": "Viscosity, kinematic: No data available. Viscosity, dynamic: No data available", "explosive_properties": "No data available", "oxidizing_properties": "No data available", "bulk_density": "No data available", "particle_size": "No data available", "statements": [{"code": "H302", "statement": "Harmful if swallowed."}, {"code": "H315", "statement": "Causes skin irritation."}, {"code": "H318", "statement": "Causes serious eye damage."}, {"code": "H335", "statement": "May cause respiratory irritation."}, {"code": "H410", "statement": "Very toxic to aquatic life with long lasting effects.. Precautionary statement(s)"}, {"code": "P261", "statement": "Avoid breathing dust/ fume/ gas/ mist/ vapours/ spray."}, {"code": "P264", "statement": "Wash skin thoroughly after handling."}, {"code": "P270", "statement": "Do not eat, drink or smoke when using this product."}, {"code": "P271", "statement": "Use only outdoors or in a well-ventilated area."}, {"code": "P273", "statement": "Avoid release to the environment."}, {"code": "P280", "statement": "Wear protective gloves/ eye protection/ face protection."}, {"code": "P301 + P312 + P330", "statement": "IF SWALLOWED: Call a POISON CENTER/doctor if you feel. unwell. Rinse mouth."}, {"code": "P302 + P352", "statement": "IF ON SKIN: Wash with plenty of soap and water."}, {"code": "P304 + P340 + P312", "statement": "IF INHALED: Remove person to fresh air and keep comfortable. for breathing. Call a POISON CENTER/doctor if you feel unwell."}, {"code": "P305 + P351 + P338 +", "statement": "IF IN EYES: Rinse cautiously with water for several minutes."}, {"code": "P310", "statement": "Remove contact lenses, if present and easy to do. Continue. rinsing. Immediately call a POISON CENTER/doctor."}, {"code": "P332 + P313", "statement": "If skin irritation occurs: Get medical advice/ attention."}, {"code": "P362", "statement": "Take off contaminated clothing and wash before reuse."}, {"code": "P391", "statement": "Collect spillage."}, {"code": "P403 + P233", "statement": "Store in a well-ventilated place. Keep container tightly closed."}, {"code": "P405", "statement": "Store locked up."}, {"code": "P501", "statement": "Dispose of contents/ container to an approved waste disposal. plant."}, {"code": "H302 + H312 + H332", "statement": "Harmful if swallowed, in contact with skin or if inhaled."}, {"code": "H315", "statement": "Causes skin irritation."}, {"code": "H319", "statement": "Causes serious eye irritation."}, {"code": "H335", "statement": "May cause respiratory irritation.. Precautionary statement(s)"}, {"code": "P261", "statement": "Avoid breathing dust/ fume/ gas/ mist/ vapors/ spray."}, {"code": "P264", "statement": "Wash skin thoroughly after handling."}, {"code": "P270", "statement": "Do not eat, drink or smoke when using this product."}, {"code": "P271", "statement": "Use only outdoors or in a well-ventilated area."}, {"code": "P280", "statement": "Wear protective gloves/ protective clothing/ eye protection/ face. protection."}, {"code": "P301 + P312 + P330", "statement": "IF SWALLOWED: Call a POISON CENTER/ doctor if you feel. unwell. Rinse mouth."}, {"code": "P302 + P352 + P312", "statement": "IF ON SKIN: Wash with plenty of water.Call a POISON CENTER/. doctor if you feel unwell."}, {"code": "P304 + P340 + P312", "statement": "IF INHALED: Remove person to fresh air and keep comfortable. for breathing. Call a POISON CENTER/ doctor if you feel unwell."}, {"code": "P305 + P351 + P338", "statement": "IF IN EYES: Rinse cautiously with water for several minutes.. Remove contact lenses, if present and easy to do. Continue. rinsing."}, {"code": "P332 + P313", "statement": "If skin irritation occurs: Get medical advice/ attention."}, {"code": "P337 + P313", "statement": "If eye irritation persists: Get medical advice/ attention."}, {"code": "P362", "statement": "Take off contaminated clothing and wash before reuse."}, {"code": "P403 + P233", "statement": "Store in a well-ventilated place. Keep container tightly closed."}, {"code": "P405", "statement": "Store locked up."}, {"code": "P501", "statement": "Dispose of contents/ container to an approved waste disposal. plant."}]}, {"id": 24231, "product_number": "21185", "CAS_number": "41372-22-9", "product_name": "Calcium L-lactate hydrate", "product_brand": "Aldrich", "supplier": {"company": ":  Sigma-Aldrich Inc.", "location": "3050 SPRUCE ST. ST. LOUIS MO  63103. UNITED STATES", "tel": ":  +1 314 771-5765", "fax": ":  +1 800 325-5052"}, "formula": ":  C6H10CaO6 \u00b7 xH2O", "mw": ":  218.22 g/mol", "ec": ":  248-953-3. No components need to be disclosed according to the applicable regulations.", "appearance": "No data available", "odor": "No data available", "pH": "No data available", "melting_point": "No data available", "flash_point": "No data available", "evaporation_rate": "No data available", "flammability": "No data available", "vapor_pressure": "No data available", "vapor_density": "No data available", "density": "No data available", "water_solubility": "No data available", "partition_coefficient": "No data available", "autoignition": "No data available", "decomposition": "No data available", "viscosity": "No data available", "explosive_properties": "No data available", "oxidizing_properties": "No data available", "bulk_density": "No data available", "particle_size": "No data available", "statements": [{"code": "H302", "statement": "Harmful if swallowed."}, {"code": "H315", "statement": "Causes skin irritation."}, {"code": "H318", "statement": "Causes serious eye damage."}, {"code": "H335", "statement": "May cause respiratory irritation."}, {"code": "H410", "statement": "Very toxic to aquatic life with long lasting effects.. Precautionary statement(s)"}, {"code": "P261", "statement": "Avoid breathing dust/ fume/ gas/ mist/ vapours/ spray."}, {"code": "P264", "statement": "Wash skin thoroughly after handling."}, {"code": "P270", "statement": "Do not eat, drink or smoke when using this product."}, {"code": "P271", "statement": "Use only outdoors or in a well-ventilated area."}, {"code": "P273", "statement": "Avoid release to the environment."}, {"code": "P280", "statement": "Wear protective gloves/ eye protection/ face protection."}, {"code": "P301 + P312 + P330", "statement": "IF SWALLOWED: Call a POISON CENTER/doctor if you feel. unwell. Rinse mouth."}, {"code": "P302 + P352", "statement": "IF ON SKIN: Wash with plenty of soap and water."}, {"code": "P304 + P340 + P312", "statement": "IF INHALED: Remove person to fresh air and keep comfortable. for breathing. Call a POISON CENTER/doctor if you feel unwell."}, {"code": "P305 + P351 + P338 +", "statement": "IF IN EYES: Rinse cautiously with water for several minutes."}, {"code": "P310", "statement": "Remove contact lenses, if present and easy to do. Continue. rinsing. Immediately call a POISON CENTER/doctor."}, {"code": "P332 + P313", "statement": "If skin irritation occurs: Get medical advice/ attention."}, {"code": "P362", "statement": "Take off contaminated clothing and wash before reuse."}, {"code": "P391", "statement": "Collect spillage."}, {"code": "P403 + P233", "statement": "Store in a well-ventilated place. Keep container tightly closed."}, {"code": "P405", "statement": "Store locked up."}, {"code": "P501", "statement": "Dispose of contents/ container to an approved waste disposal. plant."}, {"code": "H302 + H312 + H332", "statement": "Harmful if swallowed, in contact with skin or if inhaled."}, {"code": "H315", "statement": "Causes skin irritation."}, {"code": "H319", "statement": "Causes serious eye irritation."}, {"code": "H335", "statement": "May cause respiratory irritation.. Precautionary statement(s)"}, {"code": "P261", "statement": "Avoid breathing dust/ fume/ gas/ mist/ vapors/ spray."}, {"code": "P264", "statement": "Wash skin thoroughly after handling."}, {"code": "P270", "statement": "Do not eat, drink or smoke when using this product."}, {"code": "P271", "statement": "Use only outdoors or in a well-ventilated area."}, {"code": "P280", "statement": "Wear protective gloves/ protective clothing/ eye protection/ face. protection."}, {"code": "P301 + P312 + P330", "statement": "IF SWALLOWED: Call a POISON CENTER/ doctor if you feel. unwell. Rinse mouth."}, {"code": "P302 + P352 + P312", "statement": "IF ON SKIN: Wash with plenty of water.Call a POISON CENTER/. doctor if you feel unwell."}, {"code": "P304 + P340 + P312", "statement": "IF INHALED: Remove person to fresh air and keep comfortable. for breathing. Call a POISON CENTER/ doctor if you feel unwell."}, {"code": "P305 + P351 + P338", "statement": "IF IN EYES: Rinse cautiously with water for several minutes.. Remove contact lenses, if present and easy to do. Continue. rinsing."}, {"code": "P332 + P313", "statement": "If skin irritation occurs: Get medical advice/ attention."}, {"code": "P337 + P313", "statement": "If eye irritation persists: Get medical advice/ attention."}, {"code": "P362", "statement": "Take off contaminated clothing and wash before reuse."}, {"code": "P403 + P233", "statement": "Store in a well-ventilated place. Keep container tightly closed."}, {"code": "P405", "statement": "Store locked up."}, {"code": "P501", "statement": "Dispose of contents/ container to an approved waste disposal. plant."}]}, {"id": 28108, "product_number": "346071", "CAS_number": "3336-16-1", "product_name": "2-Chloro-4-hydroxybenzonitrile", "product_brand": "Aldrich", "supplier": {"company": ":  Sigma-Aldrich Inc.", "location": "3050 SPRUCE ST. ST. LOUIS MO  63103. UNITED STATES", "tel": ":  +1 314 771-5765", "fax": ":  +1 800 325-5052"}, "formula": ":  C7H4ClNO", "mw": ":  153.57 g/mol", "ec": "No data available", "appearance": "Form: solid", "odor": "No data available", "pH": "No data available", "melting_point": "Melting point/range: 160 \u00b0C (320 \u00b0F) - dec.. point/freezing point", "flash_point": "()No data available", "evaporation_rate": "No data available", "flammability": "gas)", "vapor_pressure": "No data available", "vapor_density": "No data available", "density": "No data available. Relative density. No data available", "water_solubility": "No data available", "partition_coefficient": "No data available. n-octanol/water", "autoignition": "No data available. temperature", "decomposition": "No data available. temperature", "viscosity": "No data available", "explosive_properties": "No data available", "oxidizing_properties": "No data available", "bulk_density": "No data available", "particle_size": "No data available", "statements": [{"code": "H302", "statement": "Harmful if swallowed."}, {"code": "H315", "statement": "Causes skin irritation."}, {"code": "H318", "statement": "Causes serious eye damage."}, {"code": "H335", "statement": "May cause respiratory irritation."}, {"code": "H410", "statement": "Very toxic to aquatic life with long lasting effects.. Precautionary statement(s)"}, {"code": "P261", "statement": "Avoid breathing dust/ fume/ gas/ mist/ vapours/ spray."}, {"code": "P264", "statement": "Wash skin thoroughly after handling."}, {"code": "P270", "statement": "Do not eat, drink or smoke when using this product."}, {"code": "P271", "statement": "Use only outdoors or in a well-ventilated area."}, {"code": "P273", "statement": "Avoid release to the environment."}, {"code": "P280", "statement": "Wear protective gloves/ eye protection/ face protection."}, {"code": "P301 + P312 + P330", "statement": "IF SWALLOWED: Call a POISON CENTER/doctor if you feel. unwell. Rinse mouth."}, {"code": "P302 + P352", "statement": "IF ON SKIN: Wash with plenty of soap and water."}, {"code": "P304 + P340 + P312", "statement": "IF INHALED: Remove person to fresh air and keep comfortable. for breathing. Call a POISON CENTER/doctor if you feel unwell."}, {"code": "P305 + P351 + P338 +", "statement": "IF IN EYES: Rinse cautiously with water for several minutes."}, {"code": "P310", "statement": "Remove contact lenses, if present and easy to do. Continue. rinsing. Immediately call a POISON CENTER/doctor."}, {"code": "P332 + P313", "statement": "If skin irritation occurs: Get medical advice/ attention."}, {"code": "P362", "statement": "Take off contaminated clothing and wash before reuse."}, {"code": "P391", "statement": "Collect spillage."}, {"code": "P403 + P233", "statement": "Store in a well-ventilated place. Keep container tightly closed."}, {"code": "P405", "statement": "Store locked up."}, {"code": "P501", "statement": "Dispose of contents/ container to an approved waste disposal. plant."}, {"code": "H302 + H312 + H332", "statement": "Harmful if swallowed, in contact with skin or if inhaled."}, {"code": "H315", "statement": "Causes skin irritation."}, {"code": "H319", "statement": "Causes serious eye irritation."}, {"code": "H335", "statement": "May cause respiratory irritation.. Precautionary statement(s)"}, {"code": "P261", "statement": "Avoid breathing dust/ fume/ gas/ mist/ vapors/ spray."}, {"code": "P264", "statement": "Wash skin thoroughly after handling."}, {"code": "P270", "statement": "Do not eat, drink or smoke when using this product."}, {"code": "P271", "statement": "Use only outdoors or in a well-ventilated area."}, {"code": "P280", "statement": "Wear protective gloves/ protective clothing/ eye protection/ face. protection."}, {"code": "P301 + P312 + P330", "statement": "IF SWALLOWED: Call a POISON CENTER/ doctor if you feel. unwell. Rinse mouth."}, {"code": "P302 + P352 + P312", "statement": "IF ON SKIN: Wash with plenty of water.Call a POISON CENTER/. doctor if you feel unwell."}, {"code": "P304 + P340 + P312", "statement": "IF INHALED: Remove person to fresh air and keep comfortable. for breathing. Call a POISON CENTER/ doctor if you feel unwell."}, {"code": "P305 + P351 + P338", "statement": "IF IN EYES: Rinse cautiously with water for several minutes.. Remove contact lenses, if present and easy to do. Continue. rinsing."}, {"code": "P332 + P313", "statement": "If skin irritation occurs: Get medical advice/ attention."}, {"code": "P337 + P313", "statement": "If eye irritation persists: Get medical advice/ attention."}, {"code": "P362", "statement": "Take off contaminated clothing and wash before reuse."}, {"code": "P403 + P233", "statement": "Store in a well-ventilated place. Keep container tightly closed."}, {"code": "P405", "statement": "Store locked up."}, {"code": "P501", "statement": "Dispose of contents/ container to an approved waste disposal. plant."}]}]