[{"id": 36781, "product_number": "S612626", "CAS_number": "15890-66-1", "product_name": "2-Thioglyceraldehyde", "product_brand": "Aldrich", "supplier": {"company": ":  Sigma-Aldrich Inc.", "location": "3050 SPRUCE ST. ST. LOUIS MO  63103. UNITED STATES", "tel": ":  +1 314 771-5765", "fax": ":  +1 800 325-5052"}, "formula": ":  C3H6O2S", "mw": "No data available", "ec": "No data available", "appearance": "Form: solid", "odor": "No data available", "pH": "No data available", "melting_point": "No data available. point/freezing point", "flash_point": "()No data available", "evaporation_rate": "No data available", "flammability": "No data available. gas)", "vapor_pressure": "No data available", "vapor_density": "No data available", "density": "No data available", "water_solubility": "No data available", "partition_coefficient": "log Pow: 0.048. n-octanol/water", "autoignition": "No data available", "decomposition": "No data available. temperature", "viscosity": "No data available", "explosive_properties": "No data available", "oxidizing_properties": "No data available", "bulk_density": "No data available", "particle_size": "No data available", "statements": [{"code": "H301", "statement": "Toxic if swallowed."}, {"code": "H318", "statement": "Causes serious eye damage."}, {"code": "H412", "statement": "Harmful to aquatic life with long lasting effects.. Precautionary statement(s)"}, {"code": "P264", "statement": "Wash skin thoroughly after handling."}, {"code": "P270", "statement": "Do not eat, drink or smoke when using this product."}, {"code": "P273", "statement": "Avoid release to the environment."}, {"code": "P280", "statement": "Wear protective gloves/ eye protection/ face protection."}, {"code": "P301 + P310", "statement": "IF SWALLOWED: Immediately call a POISON CENTER/doctor."}, {"code": "P305 + P351 + P338", "statement": "IF IN EYES: Rinse cautiously with water for several minutes.. Remove contact lenses, if present and easy to do. Continue. rinsing."}, {"code": "P310", "statement": "Immediately call a POISON CENTER/doctor."}, {"code": "P321", "statement": "Specific treatment (see supplemental first aid instructions on. this label)."}, {"code": "P330", "statement": "Rinse mouth."}, {"code": "P405", "statement": "Store locked up."}, {"code": "P501", "statement": "Dispose of contents/ container to an approved waste disposal. plant."}, {"code": "H302", "statement": "Harmful if swallowed."}, {"code": "H351", "statement": "Suspected of causing cancer."}]}, {"id": 36799, "product_number": "GF46650090", "CAS_number": "7440-56-4", "product_name": "Germanium", "product_brand": "Aldrich", "supplier": {"company": ":  Sigma-Aldrich Inc.", "location": "3050 SPRUCE ST. ST. LOUIS MO  63103. UNITED STATES", "tel": ":  +1 314 771-5765", "fax": ":  +1 800 325-5052"}, "formula": "No data available", "mw": ":  72.64 g/mol", "ec": "No data available", "appearance": "Form: solid", "odor": "No data available", "pH": "No data available", "melting_point": "Melting point/range: 937.2 \u00b0C (1719.0 \u00b0F). point/freezing point", "flash_point": "()Not applicable", "evaporation_rate": "No data available", "flammability": "The product is not flammable.. gas)", "vapor_pressure": "No data available", "vapor_density": "No data available", "density": "5.323 g/cm3 at 25 \u00b0C (77 \u00b0F). Relative density. No data available", "water_solubility": "No data available", "partition_coefficient": "Not applicable for inorganic substances. n-octanol/water", "autoignition": "No data available. temperature", "decomposition": "No data available. temperature", "viscosity": "No data available", "explosive_properties": "No data available", "oxidizing_properties": "No data available", "bulk_density": "No data available", "particle_size": "No data available", "statements": [{"code": "H301", "statement": "Toxic if swallowed."}, {"code": "H318", "statement": "Causes serious eye damage."}, {"code": "H412", "statement": "Harmful to aquatic life with long lasting effects.. Precautionary statement(s)"}, {"code": "P264", "statement": "Wash skin thoroughly after handling."}, {"code": "P270", "statement": "Do not eat, drink or smoke when using this product."}, {"code": "P273", "statement": "Avoid release to the environment."}, {"code": "P280", "statement": "Wear protective gloves/ eye protection/ face protection."}, {"code": "P301 + P310", "statement": "IF SWALLOWED: Immediately call a POISON CENTER/doctor."}, {"code": "P305 + P351 + P338", "statement": "IF IN EYES: Rinse cautiously with water for several minutes.. Remove contact lenses, if present and easy to do. Continue. rinsing."}, {"code": "P310", "statement": "Immediately call a POISON CENTER/doctor."}, {"code": "P321", "statement": "Specific treatment (see supplemental first aid instructions on. this label)."}, {"code": "P330", "statement": "Rinse mouth."}, {"code": "P405", "statement": "Store locked up."}, {"code": "P501", "statement": "Dispose of contents/ container to an approved waste disposal. plant."}, {"code": "H302", "statement": "Harmful if swallowed."}, {"code": "H351", "statement": "Suspected of causing cancer."}]}, {"id": 31032, "product_number": "B9935", "CAS_number": "547757-23-3", "product_name": "BMS-345541", "product_brand": "Sigma", "supplier": {"company": ":  Sigma-Aldrich Inc.", "location": "3050 SPRUCE ST. ST. LOUIS MO  63103. UNITED STATES", "tel": ":  +1 314 771-5765", "fax": ":  +1 800 325-5052"}, "formula": ":  C14H17N5 \u00b7 HCl", "mw": ":  291.78 g/mol", "ec": "No data available", "appearance": "No data available", "odor": "No data available", "pH": "No data available", "melting_point": "No data available", "flash_point": "No data available", "evaporation_rate": "No data available", "flammability": "No data available", "vapor_pressure": "No data available", "vapor_density": "No data available", "density": "No data available", "water_solubility": "No data available", "partition_coefficient": "No data available", "autoignition": "No data available", "decomposition": "No data available", "viscosity": "No data available", "explosive_properties": "No data available", "oxidizing_properties": "No data available", "bulk_density": "No data available", "particle_size": "No data available", "statements": [{"code": "H301", "statement": "Toxic if swallowed."}, {"code": "H318", "statement": "Causes serious eye damage."}, {"code": "H412", "statement": "Harmful to aquatic life with long lasting effects.. Precautionary statement(s)"}, {"code": "P264", "statement": "Wash skin thoroughly after handling."}, {"code": "P270", "statement": "Do not eat, drink or smoke when using this product."}, {"code": "P273", "statement": "Avoid release to the environment."}, {"code": "P280", "statement": "Wear protective gloves/ eye protection/ face protection."}, {"code": "P301 + P310", "statement": "IF SWALLOWED: Immediately call a POISON CENTER/doctor."}, {"code": "P305 + P351 + P338", "statement": "IF IN EYES: Rinse cautiously with water for several minutes.. Remove contact lenses, if present and easy to do. Continue. rinsing."}, {"code": "P310", "statement": "Immediately call a POISON CENTER/doctor."}, {"code": "P321", "statement": "Specific treatment (see supplemental first aid instructions on. this label)."}, {"code": "P330", "statement": "Rinse mouth."}, {"code": "P405", "statement": "Store locked up."}, {"code": "P501", "statement": "Dispose of contents/ container to an approved waste disposal. plant."}, {"code": "H302", "statement": "Harmful if swallowed."}, {"code": "H351", "statement": "Suspected of causing cancer."}]}, {"id": 46648, "product_number": "P3700000", "CAS_number": "51-52-5", "product_name": "Propylthiouracil", "product_brand": "Sigma-Aldrich", "supplier": {"company": ":  Sigma-Aldrich Inc.", "location": "3050 SPRUCE ST. ST. LOUIS MO  63103. UNITED STATES", "tel": ":  +1 314 771-5765", "fax": ":  +1 800 325-5052"}, "formula": ":  C7H10N2OS", "mw": ":  170.23 g/mol", "ec": "No data available", "appearance": "Form: powder. Color: white", "odor": "No data available", "pH": "6.0 - 7.0 at 5 g/l at 20 \u00b0C (68 \u00b0F)", "melting_point": "No data available. point/freezing point", "flash_point": "300.00 \u00b0C (572.00 \u00b0F)", "evaporation_rate": "No data available", "flammability": "No data available. gas)", "vapor_pressure": "No data available", "vapor_density": "No data available", "density": "No data available. Relative density. No data available", "water_solubility": "No data available", "partition_coefficient": "No data available. n-octanol/water", "autoignition": "No data available. temperature", "decomposition": "No data available. temperature", "viscosity": "No data available", "explosive_properties": "No data available", "oxidizing_properties": "No data available", "bulk_density": "No data available", "particle_size": "No data available", "statements": [{"code": "H301", "statement": "Toxic if swallowed."}, {"code": "H318", "statement": "Causes serious eye damage."}, {"code": "H412", "statement": "Harmful to aquatic life with long lasting effects.. Precautionary statement(s)"}, {"code": "P264", "statement": "Wash skin thoroughly after handling."}, {"code": "P270", "statement": "Do not eat, drink or smoke when using this product."}, {"code": "P273", "statement": "Avoid release to the environment."}, {"code": "P280", "statement": "Wear protective gloves/ eye protection/ face protection."}, {"code": "P301 + P310", "statement": "IF SWALLOWED: Immediately call a POISON CENTER/doctor."}, {"code": "P305 + P351 + P338", "statement": "IF IN EYES: Rinse cautiously with water for several minutes.. Remove contact lenses, if present and easy to do. Continue. rinsing."}, {"code": "P310", "statement": "Immediately call a POISON CENTER/doctor."}, {"code": "P321", "statement": "Specific treatment (see supplemental first aid instructions on. this label)."}, {"code": "P330", "statement": "Rinse mouth."}, {"code": "P405", "statement": "Store locked up."}, {"code": "P501", "statement": "Dispose of contents/ container to an approved waste disposal. plant."}, {"code": "H302", "statement": "Harmful if swallowed."}, {"code": "H351", "statement": "Suspected of causing cancer."}]}, {"id": 36835, "product_number": "GF99284451", "CAS_number": "7440-15-5", "product_name": "Rhenium, foil, thickness 0.04 mm, length 0.1", "product_brand": "Aldrich", "supplier": {"company": ":  Sigma-Aldrich Inc.", "location": "3050 SPRUCE ST. ST. LOUIS MO  63103. UNITED STATES", "tel": ":  +1 314 771-5765", "fax": ":  +1 800 325-5052"}, "formula": "No data available", "mw": "No data available", "ec": "No data available", "appearance": "Form: solid", "odor": "No data available", "pH": "No data available", "melting_point": "Melting point/range: 3,180 \u00b0C (5,756 \u00b0F). point/freezing point", "flash_point": "()Not applicable", "evaporation_rate": "No data available", "flammability": "No data available. gas)", "vapor_pressure": "No data available", "vapor_density": "No data available", "density": "No data available. Relative density. 21", "water_solubility": "No data available", "partition_coefficient": "No data available. n-octanol/water", "autoignition": "No data available. temperature", "decomposition": "No data available. temperature", "viscosity": "No data available", "explosive_properties": "No data available", "oxidizing_properties": "No data available", "bulk_density": "No data available", "particle_size": "No data available", "statements": [{"code": "H301", "statement": "Toxic if swallowed."}, {"code": "H318", "statement": "Causes serious eye damage."}, {"code": "H412", "statement": "Harmful to aquatic life with long lasting effects.. Precautionary statement(s)"}, {"code": "P264", "statement": "Wash skin thoroughly after handling."}, {"code": "P270", "statement": "Do not eat, drink or smoke when using this product."}, {"code": "P273", "statement": "Avoid release to the environment."}, {"code": "P280", "statement": "Wear protective gloves/ eye protection/ face protection."}, {"code": "P301 + P310", "statement": "IF SWALLOWED: Immediately call a POISON CENTER/doctor."}, {"code": "P305 + P351 + P338", "statement": "IF IN EYES: Rinse cautiously with water for several minutes.. Remove contact lenses, if present and easy to do. Continue. rinsing."}, {"code": "P310", "statement": "Immediately call a POISON CENTER/doctor."}, {"code": "P321", "statement": "Specific treatment (see supplemental first aid instructions on. this label)."}, {"code": "P330", "statement": "Rinse mouth."}, {"code": "P405", "statement": "Store locked up."}, {"code": "P501", "statement": "Dispose of contents/ container to an approved waste disposal. plant."}, {"code": "H302", "statement": "Harmful if swallowed."}, {"code": "H351", "statement": "Suspected of causing cancer."}]}, {"id": 3485, "product_number": "W3513", "CAS_number": "7732-18-5", "product_name": "Water", "product_brand": "Sigma", "supplier": {"company": ":  Sigma-Aldrich Inc.", "location": "3050 SPRUCE ST. ST. LOUIS MO  63103. UNITED STATES", "tel": ":  +1 314 771-5765", "fax": ":  +1 800 325-5052"}, "formula": ":  H2OH2O", "mw": ":  18.02 g/mol", "ec": ":  231-791-2. No components need to be disclosed according to the applicable regulations.", "appearance": "Form: liquid. Color: colorless", "odor": "No data available", "pH": "6.0 - 8.0 at 25 \u00b0C (77 \u00b0F)", "melting_point": "Melting point/range: 0.0 \u00b0C (32.0 \u00b0F). point/freezing point", "flash_point": "()No data available", "evaporation_rate": "No data available", "flammability": "No data available. gas)", "vapor_pressure": "No data available", "vapor_density": "No data available", "density": "No data available", "water_solubility": "completely miscible", "partition_coefficient": "log Pow: -0.467 - Bioaccumulation is not expected.. n-octanol/water", "autoignition": "No data available. temperature", "decomposition": "No data available. temperature", "viscosity": "No data available", "explosive_properties": "No data available", "oxidizing_properties": "No data available", "bulk_density": "No data available", "particle_size": "No data available", "statements": [{"code": "H301", "statement": "Toxic if swallowed."}, {"code": "H318", "statement": "Causes serious eye damage."}, {"code": "H412", "statement": "Harmful to aquatic life with long lasting effects.. Precautionary statement(s)"}, {"code": "P264", "statement": "Wash skin thoroughly after handling."}, {"code": "P270", "statement": "Do not eat, drink or smoke when using this product."}, {"code": "P273", "statement": "Avoid release to the environment."}, {"code": "P280", "statement": "Wear protective gloves/ eye protection/ face protection."}, {"code": "P301 + P310", "statement": "IF SWALLOWED: Immediately call a POISON CENTER/doctor."}, {"code": "P305 + P351 + P338", "statement": "IF IN EYES: Rinse cautiously with water for several minutes.. Remove contact lenses, if present and easy to do. Continue. rinsing."}, {"code": "P310", "statement": "Immediately call a POISON CENTER/doctor."}, {"code": "P321", "statement": "Specific treatment (see supplemental first aid instructions on. this label)."}, {"code": "P330", "statement": "Rinse mouth."}, {"code": "P405", "statement": "Store locked up."}, {"code": "P501", "statement": "Dispose of contents/ container to an approved waste disposal. plant."}, {"code": "H302", "statement": "Harmful if swallowed."}, {"code": "H351", "statement": "Suspected of causing cancer."}]}]