[{"id": 36752, "product_number": "12353", "CAS_number": "65-85-0", "product_name": "Benzoic acid", "product_brand": "Sigma", "supplier": {"company": ":  Sigma-Aldrich Inc.", "location": "3050 SPRUCE ST. ST. LOUIS MO  63103. UNITED STATES", "tel": ":  +1 314 771-5765", "fax": ":  +1 800 325-5052"}, "formula": ":  C7H6O2", "mw": ":  122.12 g/mol", "ec": ":  200-618-2. TabulaTable(extraction_method=stream, page_number=2, top=419.0, bottom=501.0, left=80.0, right=558.0, width=478.0, height=82.0, data=\n+------------+-----------------------------------------------------------------------------+-------------+\n|Component   |Classification                                                               |Concentration|\n+------------+-----------------------------------------------------------------------------+-------------+\n|Benzoic acid|                                                                             |             |\n+------------+-----------------------------------------------------------------------------+-------------+\n|Benzoic acid|Skin Irrit. 2; Eye Dam. 1; STOT RE 1; Aquatic Acute 3; H315, H318, H372, H402|<= 100 %     |\n+------------+-----------------------------------------------------------------------------+-------------+\n, additional_ops=['strip_text', 'merge_rows', 'pull_down_to_empty'])", "appearance": "Form: crystalline. Color: white", "odor": "No data available", "pH": "2.8 at 25 \u00b0C (77 \u00b0F)", "melting_point": "Melting point/range: 121 - 125 \u00b0C (250 - 257 \u00b0F) - lit.. point/freezing point", "flash_point": "No data available", "evaporation_rate": "No data available", "flammability": "No data available. gas)", "vapor_pressure": "No data available", "vapor_density": "4.22 - (Air = 1.0)", "density": "1.26 g/cm3 at 15 \u00b0C (59 \u00b0F). Relative density. No data available", "water_solubility": "No data available", "partition_coefficient": "log Pow: 1.88 - Bioaccumulation is not expected.. n-octanol/water", "autoignition": "No data available. temperature", "decomposition": "No data available. temperature", "viscosity": "No data available", "explosive_properties": "No data available", "oxidizing_properties": "No data available", "bulk_density": "No data available", "particle_size": "No data available", "statements": [{"code": "H315", "statement": "Causes skin irritation."}, {"code": "H318", "statement": "Causes serious eye damage."}, {"code": "H372", "statement": "Causes damage to organs (Lungs) through prolonged or. repeated exposure if inhaled."}, {"code": "H402", "statement": "Harmful to aquatic life.. Precautionary statement(s)"}, {"code": "P260", "statement": "Do not breathe dust."}, {"code": "P264", "statement": "Wash skin thoroughly after handling."}, {"code": "P270", "statement": "Do not eat, drink or smoke when using this product."}, {"code": "P273", "statement": "Avoid release to the environment."}, {"code": "P280", "statement": "Wear protective gloves/ eye protection/ face protection."}, {"code": "P302 + P352", "statement": "IF ON SKIN: Wash with plenty of soap and water."}, {"code": "P305 + P351 + P338 +", "statement": "IF IN EYES: Rinse cautiously with water for several minutes."}, {"code": "P310", "statement": "Remove contact lenses, if present and easy to do. Continue. rinsing. Immediately call a POISON CENTER/ doctor."}, {"code": "P314", "statement": "Get medical advice/ attention if you feel unwell."}, {"code": "P332 + P313", "statement": "If skin irritation occurs: Get medical advice/ attention."}, {"code": "P362", "statement": "Take off contaminated clothing and wash before reuse."}, {"code": "P501", "statement": "Dispose of contents/ container to an approved waste disposal. plant."}, {"code": "H302", "statement": "Harmful if swallowed.. Precautionary statement(s)"}, {"code": "P264", "statement": "Wash skin thoroughly after handling."}, {"code": "P270", "statement": "Do not eat, drink or smoke when using this product."}, {"code": "P301 + P312 + P330", "statement": "IF SWALLOWED: Call a POISON CENTER/ doctor if you feel. unwell. Rinse mouth."}, {"code": "P501", "statement": "Dispose of contents/ container to an approved waste disposal. plant."}, {"code": "H302", "statement": "Harmful if swallowed."}, {"code": "H311", "statement": "Toxic in contact with skin.. Precautionary statement(s)"}, {"code": "P264", "statement": "Wash skin thoroughly after handling."}, {"code": "P270", "statement": "Do not eat, drink or smoke when using this product."}, {"code": "P280", "statement": "Wear protective gloves/ protective clothing."}, {"code": "P301 + P312 + P330", "statement": "IF SWALLOWED: Call a POISON CENTER/ doctor if you feel. unwell. Rinse mouth."}, {"code": "P302 + P352 + P312", "statement": "IF ON SKIN: Wash with plenty of water.Call a POISON CENTER/. doctor if you feel unwell."}, {"code": "P362", "statement": "Take off contaminated clothing and wash before reuse."}, {"code": "P405", "statement": "Store locked up."}, {"code": "P501", "statement": "Dispose of contents/ container to an approved waste disposal. plant."}, {"code": "H302", "statement": "Harmful if swallowed.. Precautionary statement(s)"}, {"code": "P264", "statement": "Wash skin thoroughly after handling."}, {"code": "P270", "statement": "Do not eat, drink or smoke when using this product."}, {"code": "P301 + P312", "statement": "IF SWALLOWED: Call a POISON CENTER/ doctor if you feel. unwell."}, {"code": "P330", "statement": "Rinse mouth."}, {"code": "P501", "statement": "Dispose of contents/ container to an approved waste disposal. plant."}]}, {"id": 3389, "product_number": "85356", "CAS_number": "60676-86-0", "product_name": "Silicon dioxide", "product_brand": "Aldrich", "supplier": {"company": ":  Sigma-Aldrich Inc.", "location": "3050 SPRUCE ST. ST. LOUIS MO  63103. UNITED STATES", "tel": ":  +1 314 771-5765", "fax": ":  +1 800 325-5052"}, "formula": ":  O2Si", "mw": ":  60.08 g/mol", "ec": "No data available", "appearance": "Form: granular. Color: beige", "odor": "No data available", "pH": "9.0 - 11.0 at 20 g/l at 20 \u00b0C (68 \u00b0F)", "melting_point": "Melting point/range: 1,610 \u00b0C (2,930 \u00b0F). point/freezing point", "flash_point": "()Not applicable", "evaporation_rate": "No data available", "flammability": "No data available. gas)", "vapor_pressure": "No data available", "vapor_density": "No data available", "density": "2.6 g/mL at 25 \u00b0C (77 \u00b0F). Relative density. No data available", "water_solubility": "No data available", "partition_coefficient": "No data available. n-octanol/water", "autoignition": "370 \u00b0C (698 \u00b0F). temperature", "decomposition": "No data available. temperature", "viscosity": "No data available", "explosive_properties": "No data available", "oxidizing_properties": "No data available", "bulk_density": "No data available", "particle_size": "No data available", "statements": [{"code": "H315", "statement": "Causes skin irritation."}, {"code": "H318", "statement": "Causes serious eye damage."}, {"code": "H372", "statement": "Causes damage to organs (Lungs) through prolonged or. repeated exposure if inhaled."}, {"code": "H402", "statement": "Harmful to aquatic life.. Precautionary statement(s)"}, {"code": "P260", "statement": "Do not breathe dust."}, {"code": "P264", "statement": "Wash skin thoroughly after handling."}, {"code": "P270", "statement": "Do not eat, drink or smoke when using this product."}, {"code": "P273", "statement": "Avoid release to the environment."}, {"code": "P280", "statement": "Wear protective gloves/ eye protection/ face protection."}, {"code": "P302 + P352", "statement": "IF ON SKIN: Wash with plenty of soap and water."}, {"code": "P305 + P351 + P338 +", "statement": "IF IN EYES: Rinse cautiously with water for several minutes."}, {"code": "P310", "statement": "Remove contact lenses, if present and easy to do. Continue. rinsing. Immediately call a POISON CENTER/ doctor."}, {"code": "P314", "statement": "Get medical advice/ attention if you feel unwell."}, {"code": "P332 + P313", "statement": "If skin irritation occurs: Get medical advice/ attention."}, {"code": "P362", "statement": "Take off contaminated clothing and wash before reuse."}, {"code": "P501", "statement": "Dispose of contents/ container to an approved waste disposal. plant."}, {"code": "H302", "statement": "Harmful if swallowed.. Precautionary statement(s)"}, {"code": "P264", "statement": "Wash skin thoroughly after handling."}, {"code": "P270", "statement": "Do not eat, drink or smoke when using this product."}, {"code": "P301 + P312 + P330", "statement": "IF SWALLOWED: Call a POISON CENTER/ doctor if you feel. unwell. Rinse mouth."}, {"code": "P501", "statement": "Dispose of contents/ container to an approved waste disposal. plant."}, {"code": "H302", "statement": "Harmful if swallowed."}, {"code": "H311", "statement": "Toxic in contact with skin.. Precautionary statement(s)"}, {"code": "P264", "statement": "Wash skin thoroughly after handling."}, {"code": "P270", "statement": "Do not eat, drink or smoke when using this product."}, {"code": "P280", "statement": "Wear protective gloves/ protective clothing."}, {"code": "P301 + P312 + P330", "statement": "IF SWALLOWED: Call a POISON CENTER/ doctor if you feel. unwell. Rinse mouth."}, {"code": "P302 + P352 + P312", "statement": "IF ON SKIN: Wash with plenty of water.Call a POISON CENTER/. doctor if you feel unwell."}, {"code": "P362", "statement": "Take off contaminated clothing and wash before reuse."}, {"code": "P405", "statement": "Store locked up."}, {"code": "P501", "statement": "Dispose of contents/ container to an approved waste disposal. plant."}, {"code": "H302", "statement": "Harmful if swallowed.. Precautionary statement(s)"}, {"code": "P264", "statement": "Wash skin thoroughly after handling."}, {"code": "P270", "statement": "Do not eat, drink or smoke when using this product."}, {"code": "P301 + P312", "statement": "IF SWALLOWED: Call a POISON CENTER/ doctor if you feel. unwell."}, {"code": "P330", "statement": "Rinse mouth."}, {"code": "P501", "statement": "Dispose of contents/ container to an approved waste disposal. plant."}]}, {"id": 28086, "product_number": "A7085", "CAS_number": "103-90-2", "product_name": "Acetaminophen", "product_brand": "Sigma-Aldrich", "supplier": {"company": ":  Sigma-Aldrich Inc.", "location": "3050 SPRUCE ST. ST. LOUIS MO  63103. UNITED STATES", "tel": ":  +1 314 771-5765", "fax": ":  +1 800 325-5052"}, "formula": ":  C8H9NO2", "mw": ":  151.16 g/mol", "ec": ":  203-157-5. TabulaTable(extraction_method=stream, page_number=2, top=315.0, bottom=361.0, left=80.0, right=558.0, width=478.0, height=46.0, data=\n+---------------------+------------------+-------------+\n|Component            |Classification    |Concentration|\n+---------------------+------------------+-------------+\n|4'-hydroxyacetanilide|                  |             |\n+---------------------+------------------+-------------+\n|4'-hydroxyacetanilide|Acute Tox. 4; H302|<= 100 %     |\n+---------------------+------------------+-------------+\n, additional_ops=['strip_text', 'merge_rows', 'pull_down_to_empty'])", "appearance": "Form: powder. Color: white", "odor": "Not applicable", "pH": "5.5 - 6.5 at 20 \u00b0C (68 \u00b0F) - (saturated solution)", "melting_point": "Melting point/range: 168 - 172 \u00b0C (334 - 342 \u00b0F) - lit.. point/freezing point", "flash_point": "184.6 \u00b0C (364.3 \u00b0F) - Pensky-Martens closed cup - ISO 2719", "evaporation_rate": "No data available", "flammability": "No data available. gas)", "vapor_pressure": "No data available", "vapor_density": "No data available", "density": "1.214 g/cm3 at 20 \u00b0C (68 \u00b0F) - OECD Test Guideline 109. Relative density. No data available", "water_solubility": "19 g/l at 28 \u00b0C (82 \u00b0F) - completely soluble", "partition_coefficient": "log Pow: 1.098 at 25 \u00b0C (77 \u00b0F) - Bioaccumulation is not. n-octanol/water. expected.", "autoignition": "No data available. temperature", "decomposition": "> 180 \u00b0C (> 356 \u00b0F) -. temperature", "viscosity": "No data available", "explosive_properties": "No data available", "oxidizing_properties": "No data available", "bulk_density": "No data available", "particle_size": "No data available", "statements": [{"code": "H315", "statement": "Causes skin irritation."}, {"code": "H318", "statement": "Causes serious eye damage."}, {"code": "H372", "statement": "Causes damage to organs (Lungs) through prolonged or. repeated exposure if inhaled."}, {"code": "H402", "statement": "Harmful to aquatic life.. Precautionary statement(s)"}, {"code": "P260", "statement": "Do not breathe dust."}, {"code": "P264", "statement": "Wash skin thoroughly after handling."}, {"code": "P270", "statement": "Do not eat, drink or smoke when using this product."}, {"code": "P273", "statement": "Avoid release to the environment."}, {"code": "P280", "statement": "Wear protective gloves/ eye protection/ face protection."}, {"code": "P302 + P352", "statement": "IF ON SKIN: Wash with plenty of soap and water."}, {"code": "P305 + P351 + P338 +", "statement": "IF IN EYES: Rinse cautiously with water for several minutes."}, {"code": "P310", "statement": "Remove contact lenses, if present and easy to do. Continue. rinsing. Immediately call a POISON CENTER/ doctor."}, {"code": "P314", "statement": "Get medical advice/ attention if you feel unwell."}, {"code": "P332 + P313", "statement": "If skin irritation occurs: Get medical advice/ attention."}, {"code": "P362", "statement": "Take off contaminated clothing and wash before reuse."}, {"code": "P501", "statement": "Dispose of contents/ container to an approved waste disposal. plant."}, {"code": "H302", "statement": "Harmful if swallowed.. Precautionary statement(s)"}, {"code": "P264", "statement": "Wash skin thoroughly after handling."}, {"code": "P270", "statement": "Do not eat, drink or smoke when using this product."}, {"code": "P301 + P312 + P330", "statement": "IF SWALLOWED: Call a POISON CENTER/ doctor if you feel. unwell. Rinse mouth."}, {"code": "P501", "statement": "Dispose of contents/ container to an approved waste disposal. plant."}, {"code": "H302", "statement": "Harmful if swallowed."}, {"code": "H311", "statement": "Toxic in contact with skin.. Precautionary statement(s)"}, {"code": "P264", "statement": "Wash skin thoroughly after handling."}, {"code": "P270", "statement": "Do not eat, drink or smoke when using this product."}, {"code": "P280", "statement": "Wear protective gloves/ protective clothing."}, {"code": "P301 + P312 + P330", "statement": "IF SWALLOWED: Call a POISON CENTER/ doctor if you feel. unwell. Rinse mouth."}, {"code": "P302 + P352 + P312", "statement": "IF ON SKIN: Wash with plenty of water.Call a POISON CENTER/. doctor if you feel unwell."}, {"code": "P362", "statement": "Take off contaminated clothing and wash before reuse."}, {"code": "P405", "statement": "Store locked up."}, {"code": "P501", "statement": "Dispose of contents/ container to an approved waste disposal. plant."}, {"code": "H302", "statement": "Harmful if swallowed.. Precautionary statement(s)"}, {"code": "P264", "statement": "Wash skin thoroughly after handling."}, {"code": "P270", "statement": "Do not eat, drink or smoke when using this product."}, {"code": "P301 + P312", "statement": "IF SWALLOWED: Call a POISON CENTER/ doctor if you feel. unwell."}, {"code": "P330", "statement": "Rinse mouth."}, {"code": "P501", "statement": "Dispose of contents/ container to an approved waste disposal. plant."}]}, {"id": 2908, "product_number": "N144", "CAS_number": "39562-70-4", "product_name": "Nitrendipine", "product_brand": "Sigma", "supplier": {"company": ":  Sigma-Aldrich Inc.", "location": "3050 SPRUCE ST. ST. LOUIS MO  63103. UNITED STATES", "tel": ":  +1 314 771-5765", "fax": ":  +1 800 325-5052"}, "formula": ":  C18H20N2O6", "mw": ":  360.36 g/mol", "ec": ":  254-513-1. No components need to be disclosed according to the applicable regulations.", "appearance": "Form: powder", "odor": "No data available", "pH": "No data available", "melting_point": "No data available. point/freezing point", "flash_point": "No data available", "evaporation_rate": "No data available", "flammability": "No data available. gas)", "vapor_pressure": "No data available", "vapor_density": "No data available", "density": "No data available", "water_solubility": "No data available", "partition_coefficient": "No data available. n-octanol/water", "autoignition": "No data available", "decomposition": "No data available. temperature", "viscosity": "No data available", "explosive_properties": "No data available", "oxidizing_properties": "No data available", "bulk_density": "No data available", "particle_size": "No data available", "statements": [{"code": "H315", "statement": "Causes skin irritation."}, {"code": "H318", "statement": "Causes serious eye damage."}, {"code": "H372", "statement": "Causes damage to organs (Lungs) through prolonged or. repeated exposure if inhaled."}, {"code": "H402", "statement": "Harmful to aquatic life.. Precautionary statement(s)"}, {"code": "P260", "statement": "Do not breathe dust."}, {"code": "P264", "statement": "Wash skin thoroughly after handling."}, {"code": "P270", "statement": "Do not eat, drink or smoke when using this product."}, {"code": "P273", "statement": "Avoid release to the environment."}, {"code": "P280", "statement": "Wear protective gloves/ eye protection/ face protection."}, {"code": "P302 + P352", "statement": "IF ON SKIN: Wash with plenty of soap and water."}, {"code": "P305 + P351 + P338 +", "statement": "IF IN EYES: Rinse cautiously with water for several minutes."}, {"code": "P310", "statement": "Remove contact lenses, if present and easy to do. Continue. rinsing. Immediately call a POISON CENTER/ doctor."}, {"code": "P314", "statement": "Get medical advice/ attention if you feel unwell."}, {"code": "P332 + P313", "statement": "If skin irritation occurs: Get medical advice/ attention."}, {"code": "P362", "statement": "Take off contaminated clothing and wash before reuse."}, {"code": "P501", "statement": "Dispose of contents/ container to an approved waste disposal. plant."}, {"code": "H302", "statement": "Harmful if swallowed.. Precautionary statement(s)"}, {"code": "P264", "statement": "Wash skin thoroughly after handling."}, {"code": "P270", "statement": "Do not eat, drink or smoke when using this product."}, {"code": "P301 + P312 + P330", "statement": "IF SWALLOWED: Call a POISON CENTER/ doctor if you feel. unwell. Rinse mouth."}, {"code": "P501", "statement": "Dispose of contents/ container to an approved waste disposal. plant."}, {"code": "H302", "statement": "Harmful if swallowed."}, {"code": "H311", "statement": "Toxic in contact with skin.. Precautionary statement(s)"}, {"code": "P264", "statement": "Wash skin thoroughly after handling."}, {"code": "P270", "statement": "Do not eat, drink or smoke when using this product."}, {"code": "P280", "statement": "Wear protective gloves/ protective clothing."}, {"code": "P301 + P312 + P330", "statement": "IF SWALLOWED: Call a POISON CENTER/ doctor if you feel. unwell. Rinse mouth."}, {"code": "P302 + P352 + P312", "statement": "IF ON SKIN: Wash with plenty of water.Call a POISON CENTER/. doctor if you feel unwell."}, {"code": "P362", "statement": "Take off contaminated clothing and wash before reuse."}, {"code": "P405", "statement": "Store locked up."}, {"code": "P501", "statement": "Dispose of contents/ container to an approved waste disposal. plant."}, {"code": "H302", "statement": "Harmful if swallowed.. Precautionary statement(s)"}, {"code": "P264", "statement": "Wash skin thoroughly after handling."}, {"code": "P270", "statement": "Do not eat, drink or smoke when using this product."}, {"code": "P301 + P312", "statement": "IF SWALLOWED: Call a POISON CENTER/ doctor if you feel. unwell."}, {"code": "P330", "statement": "Rinse mouth."}, {"code": "P501", "statement": "Dispose of contents/ container to an approved waste disposal. plant."}]}, {"id": 2809, "product_number": "C94602", "CAS_number": "100-70-9", "product_name": "2-Pyridinecarbonitrile", "product_brand": "Aldrich", "supplier": {"company": ":  Sigma-Aldrich Inc.", "location": "3050 SPRUCE ST. ST. LOUIS MO  63103. UNITED STATES", "tel": ":  +1 314 771-5765", "fax": ":  +1 800 325-5052"}, "formula": ":  C6H4N2", "mw": ":  104.11 g/mol", "ec": ":  202-880-3. TabulaTable(extraction_method=stream, page_number=2, top=367.0, bottom=425.0, left=80.0, right=558.0, width=478.0, height=58.0, data=\n+-----------------------+--------------------------------------+-------------+\n|Component              |Classification                        |Concentration|\n+-----------------------+--------------------------------------+-------------+\n|pyridine-2-carbonitrile|                                      |             |\n+-----------------------+--------------------------------------+-------------+\n|pyridine-2-carbonitrile|Acute Tox. 4; Acute Tox. 3; H302, H311|<= 100 %     |\n+-----------------------+--------------------------------------+-------------+\n, additional_ops=['strip_text', 'merge_rows', 'pull_down_to_empty'])", "appearance": "Form: Solidified mass or fragments. Color: light brown", "odor": "No data available", "pH": "No data available", "melting_point": "Melting point/range: 24 - 27 \u00b0C (75 - 81 \u00b0F) - lit.. point/freezing point", "flash_point": "89 \u00b0C (192 \u00b0F) - closed cup", "evaporation_rate": "No data available", "flammability": "No data available. gas)", "vapor_pressure": "No data available", "vapor_density": "No data available", "density": "1.081 g/mL at 25 \u00b0C (77 \u00b0F) - lit.. Relative density. 1.0825 \u00b0C", "water_solubility": "No data available", "partition_coefficient": "No data available. n-octanol/water", "autoignition": "No data available. temperature", "decomposition": "No data available. temperature", "viscosity": "No data available", "explosive_properties": "No data available", "oxidizing_properties": "No data available", "bulk_density": "No data available", "particle_size": "No data available", "statements": [{"code": "H315", "statement": "Causes skin irritation."}, {"code": "H318", "statement": "Causes serious eye damage."}, {"code": "H372", "statement": "Causes damage to organs (Lungs) through prolonged or. repeated exposure if inhaled."}, {"code": "H402", "statement": "Harmful to aquatic life.. Precautionary statement(s)"}, {"code": "P260", "statement": "Do not breathe dust."}, {"code": "P264", "statement": "Wash skin thoroughly after handling."}, {"code": "P270", "statement": "Do not eat, drink or smoke when using this product."}, {"code": "P273", "statement": "Avoid release to the environment."}, {"code": "P280", "statement": "Wear protective gloves/ eye protection/ face protection."}, {"code": "P302 + P352", "statement": "IF ON SKIN: Wash with plenty of soap and water."}, {"code": "P305 + P351 + P338 +", "statement": "IF IN EYES: Rinse cautiously with water for several minutes."}, {"code": "P310", "statement": "Remove contact lenses, if present and easy to do. Continue. rinsing. Immediately call a POISON CENTER/ doctor."}, {"code": "P314", "statement": "Get medical advice/ attention if you feel unwell."}, {"code": "P332 + P313", "statement": "If skin irritation occurs: Get medical advice/ attention."}, {"code": "P362", "statement": "Take off contaminated clothing and wash before reuse."}, {"code": "P501", "statement": "Dispose of contents/ container to an approved waste disposal. plant."}, {"code": "H302", "statement": "Harmful if swallowed.. Precautionary statement(s)"}, {"code": "P264", "statement": "Wash skin thoroughly after handling."}, {"code": "P270", "statement": "Do not eat, drink or smoke when using this product."}, {"code": "P301 + P312 + P330", "statement": "IF SWALLOWED: Call a POISON CENTER/ doctor if you feel. unwell. Rinse mouth."}, {"code": "P501", "statement": "Dispose of contents/ container to an approved waste disposal. plant."}, {"code": "H302", "statement": "Harmful if swallowed."}, {"code": "H311", "statement": "Toxic in contact with skin.. Precautionary statement(s)"}, {"code": "P264", "statement": "Wash skin thoroughly after handling."}, {"code": "P270", "statement": "Do not eat, drink or smoke when using this product."}, {"code": "P280", "statement": "Wear protective gloves/ protective clothing."}, {"code": "P301 + P312 + P330", "statement": "IF SWALLOWED: Call a POISON CENTER/ doctor if you feel. unwell. Rinse mouth."}, {"code": "P302 + P352 + P312", "statement": "IF ON SKIN: Wash with plenty of water.Call a POISON CENTER/. doctor if you feel unwell."}, {"code": "P362", "statement": "Take off contaminated clothing and wash before reuse."}, {"code": "P405", "statement": "Store locked up."}, {"code": "P501", "statement": "Dispose of contents/ container to an approved waste disposal. plant."}, {"code": "H302", "statement": "Harmful if swallowed.. Precautionary statement(s)"}, {"code": "P264", "statement": "Wash skin thoroughly after handling."}, {"code": "P270", "statement": "Do not eat, drink or smoke when using this product."}, {"code": "P301 + P312", "statement": "IF SWALLOWED: Call a POISON CENTER/ doctor if you feel. unwell."}, {"code": "P330", "statement": "Rinse mouth."}, {"code": "P501", "statement": "Dispose of contents/ container to an approved waste disposal. plant."}]}, {"id": 28132, "product_number": "D2396", "CAS_number": "523-87-5", "product_name": "Dimenhydrinate", "product_brand": "Sigma", "supplier": {"company": ":  Sigma-Aldrich Inc.", "location": "3050 SPRUCE ST. ST. LOUIS MO  63103. UNITED STATES", "tel": ":  +1 314 771-5765", "fax": ":  +1 800 325-5052"}, "formula": ":  C17H21NO \u00b7 C7H7ClN4O2", "mw": ":  469.96 g/mol", "ec": ":  208-350-8. TabulaTable(extraction_method=stream, page_number=2, top=291.0, bottom=337.0, left=80.0, right=558.0, width=478.0, height=46.0, data=\n+--------------+------------------+-------------+\n|Component     |Classification    |Concentration|\n+--------------+------------------+-------------+\n|Dimenhydrinate|                  |             |\n+--------------+------------------+-------------+\n|Dimenhydrinate|Acute Tox. 4; H302|<= 100 %     |\n+--------------+------------------+-------------+\n, additional_ops=['strip_text', 'merge_rows', 'pull_down_to_empty'])", "appearance": "Form: solid", "odor": "No data available", "pH": "No data available", "melting_point": "104.5 \u00b0C (220.1 \u00b0F). point/freezing point", "flash_point": "No data available", "evaporation_rate": "No data available", "flammability": "No data available. gas)", "vapor_pressure": "No data available", "vapor_density": "No data available", "density": "No data available. Relative density. No data available", "water_solubility": "No data available", "partition_coefficient": "No data available. n-octanol/water", "autoignition": "No data available. temperature", "decomposition": "No data available. temperature", "viscosity": "No data available", "explosive_properties": "No data available", "oxidizing_properties": "No data available", "bulk_density": "No data available", "particle_size": "No data available", "statements": [{"code": "H315", "statement": "Causes skin irritation."}, {"code": "H318", "statement": "Causes serious eye damage."}, {"code": "H372", "statement": "Causes damage to organs (Lungs) through prolonged or. repeated exposure if inhaled."}, {"code": "H402", "statement": "Harmful to aquatic life.. Precautionary statement(s)"}, {"code": "P260", "statement": "Do not breathe dust."}, {"code": "P264", "statement": "Wash skin thoroughly after handling."}, {"code": "P270", "statement": "Do not eat, drink or smoke when using this product."}, {"code": "P273", "statement": "Avoid release to the environment."}, {"code": "P280", "statement": "Wear protective gloves/ eye protection/ face protection."}, {"code": "P302 + P352", "statement": "IF ON SKIN: Wash with plenty of soap and water."}, {"code": "P305 + P351 + P338 +", "statement": "IF IN EYES: Rinse cautiously with water for several minutes."}, {"code": "P310", "statement": "Remove contact lenses, if present and easy to do. Continue. rinsing. Immediately call a POISON CENTER/ doctor."}, {"code": "P314", "statement": "Get medical advice/ attention if you feel unwell."}, {"code": "P332 + P313", "statement": "If skin irritation occurs: Get medical advice/ attention."}, {"code": "P362", "statement": "Take off contaminated clothing and wash before reuse."}, {"code": "P501", "statement": "Dispose of contents/ container to an approved waste disposal. plant."}, {"code": "H302", "statement": "Harmful if swallowed.. Precautionary statement(s)"}, {"code": "P264", "statement": "Wash skin thoroughly after handling."}, {"code": "P270", "statement": "Do not eat, drink or smoke when using this product."}, {"code": "P301 + P312 + P330", "statement": "IF SWALLOWED: Call a POISON CENTER/ doctor if you feel. unwell. Rinse mouth."}, {"code": "P501", "statement": "Dispose of contents/ container to an approved waste disposal. plant."}, {"code": "H302", "statement": "Harmful if swallowed."}, {"code": "H311", "statement": "Toxic in contact with skin.. Precautionary statement(s)"}, {"code": "P264", "statement": "Wash skin thoroughly after handling."}, {"code": "P270", "statement": "Do not eat, drink or smoke when using this product."}, {"code": "P280", "statement": "Wear protective gloves/ protective clothing."}, {"code": "P301 + P312 + P330", "statement": "IF SWALLOWED: Call a POISON CENTER/ doctor if you feel. unwell. Rinse mouth."}, {"code": "P302 + P352 + P312", "statement": "IF ON SKIN: Wash with plenty of water.Call a POISON CENTER/. doctor if you feel unwell."}, {"code": "P362", "statement": "Take off contaminated clothing and wash before reuse."}, {"code": "P405", "statement": "Store locked up."}, {"code": "P501", "statement": "Dispose of contents/ container to an approved waste disposal. plant."}, {"code": "H302", "statement": "Harmful if swallowed.. Precautionary statement(s)"}, {"code": "P264", "statement": "Wash skin thoroughly after handling."}, {"code": "P270", "statement": "Do not eat, drink or smoke when using this product."}, {"code": "P301 + P312", "statement": "IF SWALLOWED: Call a POISON CENTER/ doctor if you feel. unwell."}, {"code": "P330", "statement": "Rinse mouth."}, {"code": "P501", "statement": "Dispose of contents/ container to an approved waste disposal. plant."}]}]