[{"id": 2029, "product_number": "PH001146", "CAS_number": "768-90-1", "product_name": "1-BROMOADAMANTANE", "product_brand": "Aldrich", "supplier": {"company": ":  Sigma-Aldrich Inc.", "location": "3050 SPRUCE ST. ST. LOUIS MO  63103. UNITED STATES", "tel": ":  +1 314 771-5765", "fax": ":  +1 800 325-5052"}, "formula": ":  C10H15Br", "mw": ":  215.14 g/mol", "ec": ":  212-200-7. No components need to be disclosed according to the applicable regulations.", "appearance": "Form: powder. Colour: beige", "odor": "No data available", "pH": "No data available", "melting_point": "Melting point/range: 116 - 118 \u00b0C (241 - 244 \u00b0F). point/freezing point", "flash_point": "()Not applicable", "evaporation_rate": "No data available", "flammability": "No data available. gas)", "vapor_pressure": "No data available", "vapor_density": "No data available", "density": "No data available", "water_solubility": "No data available", "partition_coefficient": "No data available. n-octanol/water", "autoignition": "No data available", "decomposition": "No data available. temperature", "viscosity": "No data available", "explosive_properties": "No data available", "oxidizing_properties": "No data available", "bulk_density": "No data available", "particle_size": "No data available", "statements": [], "canonical_smiles": "C1C2CC3CC1CC(C2)(C3)Br", "isomeric_smiles": "C1C2CC3CC1CC(C2)(C3)Br"}, {"id": 839, "product_number": "1249916", "CAS_number": "37945-06-5", "product_name": "Estazolam Related Compound A", "product_brand": "US Pharmacopeia", "supplier": {"company": ":  Sigma-Aldrich Inc.", "location": "3050 SPRUCE ST. ST. LOUIS MO  63103. UNITED STATES", "tel": ":  +1 314 771-5765", "fax": ":  +1 800 325-5052"}, "formula": "No data available", "mw": ":  332.18 g/mol", "ec": "No data available", "appearance": "Form: Crystalline powder", "odor": "No data available", "pH": "No data available", "melting_point": "Melting point/freezing point: 140.7 - 141.7 \u00b0C (285.3 - 287.1. point/freezing point. \u00b0F)", "flash_point": "()No data available", "evaporation_rate": "No data available", "flammability": "No data available. gas)", "vapor_pressure": "No data available", "vapor_density": "No data available", "density": "No data available", "water_solubility": "No data available", "partition_coefficient": "No data available. n-octanol/water", "autoignition": "No data available", "decomposition": "No data available. temperature", "viscosity": "No data available", "explosive_properties": "No data available", "oxidizing_properties": "No data available", "bulk_density": "No data available", "particle_size": "No data available", "statements": [], "canonical_smiles": "No data available", "isomeric_smiles": "No data available"}, {"id": 30107, "product_number": "52229", "CAS_number": "537-98-4", "product_name": "TRANS-FERULIC ACID", "product_brand": "Sigma-Aldrich", "supplier": {"company": ":  Sigma-Aldrich Inc.", "location": "3050 SPRUCE ST. ST. LOUIS MO  63103. UNITED STATES", "tel": ":  +1 314 771-5765", "fax": ":  +1 800 325-5052"}, "formula": ":  C10H10O4", "mw": ":  194.18 g/mol", "ec": ":  208-679-7. No components need to be disclosed according to the applicable regulations.", "appearance": "Form: powder. Color: white", "odor": "No data available", "pH": "No data available", "melting_point": "Melting point/range: 168 - 172 \u00b0C (334 - 342 \u00b0F) - lit.. point/freezing point", "flash_point": "()No data available", "evaporation_rate": "No data available", "flammability": "No data available. gas)", "vapor_pressure": "No data available", "vapor_density": "No data available", "density": "No data available. Relative density. No data available", "water_solubility": "No data available", "partition_coefficient": "log Pow: 1.68. n-octanol/water", "autoignition": "No data available. temperature", "decomposition": "No data available. temperature", "viscosity": "No data available", "explosive_properties": "No data available", "oxidizing_properties": "No data available", "bulk_density": "No data available", "particle_size": "No data available", "statements": [], "canonical_smiles": "COC1=C(C=CC(=C1)C=CC(=O)O)O", "isomeric_smiles": "COC1=C(C=CC(=C1)/C=C/C(=O)O)O"}, {"id": 2126, "product_number": "15398", "CAS_number": "73821-95-1", "product_name": "Boc-Asp(OcHx)-OH", "product_brand": "Aldrich", "supplier": {"company": ":  Sigma-Aldrich Inc.", "location": "3050 SPRUCE ST. ST. LOUIS MO  63103. UNITED STATES", "tel": ":  +1 314 771-5765", "fax": ":  +1 800 325-5052"}, "formula": ":  C15H25NO6", "mw": ":  315.36 g/mol", "ec": "No data available", "appearance": "Form: powder. Color: white", "odor": "No data available", "pH": "No data available", "melting_point": "Melting point/range: 93 - 95 \u00b0C (199 - 203 \u00b0F). point/freezing point", "flash_point": "()No data available", "evaporation_rate": "No data available", "flammability": "No data available. gas)", "vapor_pressure": "No data available", "vapor_density": "No data available", "density": "No data available. Relative density. No data available", "water_solubility": "No data available", "partition_coefficient": "No data available. n-octanol/water", "autoignition": "No data available. temperature", "decomposition": "No data available. temperature", "viscosity": "No data available", "explosive_properties": "No data available", "oxidizing_properties": "No data available", "bulk_density": "No data available", "particle_size": "No data available", "statements": [], "canonical_smiles": "CC(C)(C)OC(=O)NC(CC(=O)OC1CCCCC1)C(=O)O", "isomeric_smiles": "CC(C)(C)OC(=O)N[C@@H](CC(=O)OC1CCCCC1)C(=O)O"}, {"id": 853, "product_number": "Z2626", "CAS_number": "144541-82-2", "product_name": "Zaragozic acid A trisodium salt", "product_brand": "Sigma", "supplier": {"company": ":  Sigma-Aldrich Inc.", "location": "3050 SPRUCE ST. ST. LOUIS MO  63103. UNITED STATES", "tel": ":  +1 314 771-5765", "fax": ":  +1 800 325-5052"}, "formula": ":  C35H43O14Na3", "mw": ":  756.68 g/mol", "ec": "No data available", "appearance": "No data available", "odor": "No data available", "pH": "No data available", "melting_point": "No data available", "flash_point": "No data available", "evaporation_rate": "No data available", "flammability": "No data available", "vapor_pressure": "No data available", "vapor_density": "No data available", "density": "No data available", "water_solubility": "No data available", "partition_coefficient": "No data available", "autoignition": "No data available", "decomposition": "No data available", "viscosity": "No data available", "explosive_properties": "No data available", "oxidizing_properties": "No data available", "bulk_density": "No data available", "particle_size": "No data available", "statements": [], "canonical_smiles": "CCC(C)CC(C)C=CC(=O)OC1C(C2(OC(C(C1(O2)C(=O)[O-])(C(=O)[O-])O)C(=O)[O-])CCC(=C)C(C(C)CC3=CC=CC=C3)OC(=O)C)O.[Na+].[Na+].[Na+]", "isomeric_smiles": "CC[C@H](C)C[C@H](C)/C=C/C(=O)O[C@@H]1[C@H]([C@]2(O[C@@H]([C@]([C@@]1(O2)C(=O)[O-])(C(=O)[O-])O)C(=O)[O-])CCC(=C)[C@H]([C@H](C)CC3=CC=CC=C3)OC(=O)C)O.[Na+].[Na+].[Na+]"}, {"id": 846, "product_number": "324516", "CAS_number": "142557-61-7", "product_name": "eEF2K Inhibitor, A-484954", "product_brand": "Millipore", "supplier": {"company": ":  Sigma-Aldrich Inc.", "location": "3050 SPRUCE ST. ST. LOUIS MO  63103. UNITED STATES", "tel": ":  +1 314 771-5765", "fax": ":  +1 800 325-5052"}, "formula": "No data available", "mw": "No data available", "ec": "No data available", "appearance": "Form: powder. Color: off-white", "odor": "No data available", "pH": "No data available", "melting_point": "No data available. point/freezing point", "flash_point": "()Not applicable", "evaporation_rate": "No data available", "flammability": "No data available. gas)", "vapor_pressure": "No data available", "vapor_density": "No data available", "density": "No data available. Relative density. No data available", "water_solubility": "No data available", "partition_coefficient": "No data available. n-octanol/water", "autoignition": "No data available. temperature", "decomposition": "No data available. temperature", "viscosity": "No data available", "explosive_properties": "No data available", "oxidizing_properties": "No data available", "bulk_density": "No data available", "particle_size": "No data available", "statements": [], "canonical_smiles": "No data available", "isomeric_smiles": "No data available"}]