[{"id": 20413, "product_number": "400866", "CAS_number": "1345-25-1", "product_name": "Iron(II) oxide", "product_brand": "Aldrich", "supplier": {"company": ":  Sigma-Aldrich Inc.", "location": "3050 SPRUCE ST. ST. LOUIS MO  63103. UNITED STATES", "tel": ":  +1 314 771-5765", "fax": ":  +1 800 325-5052"}, "formula": ":  FeO", "mw": ":  71.84 g/mol", "ec": ":  215-721-8. No components need to be disclosed according to the applicable regulations.", "appearance": "Form: powder", "odor": "No data available", "pH": "No data available", "melting_point": "No data available. point/freezing point", "flash_point": "()Not applicable", "evaporation_rate": "No data available", "flammability": "The product is not flammable.. gas)", "vapor_pressure": "No data available", "vapor_density": "No data available", "density": "5.7 g/mL at 25 \u00b0C (77 \u00b0F) - lit.. Relative density. No data available", "water_solubility": "No data available", "partition_coefficient": "No data available. n-octanol/water", "autoignition": "No data available. temperature", "decomposition": "No data available. temperature", "viscosity": "No data available", "explosive_properties": "No data available", "oxidizing_properties": "No data available", "bulk_density": "No data available", "particle_size": "No data available", "statements": [{"code": "H220", "statement": "Extremely flammable gas."}, {"code": "H280", "statement": "Contains gas under pressure; may explode if heated.. May displace oxygen and cause rapid suffocation.. Precautionary statement(s)"}, {"code": "P210", "statement": "Keep away from heat/ sparks/ open flames/ hot surfaces. No. smoking."}, {"code": "P377", "statement": "Leaking gas fire: Do not extinguish, unless leak can be stopped. safely."}, {"code": "P381", "statement": "Eliminate all ignition sources if safe to do so."}, {"code": "P410 + P403", "statement": "Protect from sunlight. Store in a well-ventilated place."}, {"code": "H225", "statement": "Highly flammable liquid and vapor."}, {"code": "H319", "statement": "Causes serious eye irritation.. Precautionary statement(s)"}, {"code": "P210", "statement": "Keep away from heat/ sparks/ open flames/ hot surfaces. No. smoking."}, {"code": "P233", "statement": "Keep container tightly closed."}, {"code": "P240", "statement": "Ground/bond container and receiving equipment."}, {"code": "P241", "statement": "Use explosion-proof electrical/ ventilating/ lighting/ equipment."}, {"code": "P242", "statement": "Use only non-sparking tools."}, {"code": "P243", "statement": "Take precautionary measures against static discharge."}, {"code": "P264", "statement": "Wash skin thoroughly after handling."}, {"code": "P280", "statement": "Wear protective gloves/ eye protection/ face protection."}, {"code": "P303 + P361 + P353", "statement": "IF ON SKIN (or hair): Take off immediately all contaminated. clothing. Rinse skin with water/ shower."}, {"code": "P305 + P351 + P338", "statement": "IF IN EYES: Rinse cautiously with water for several minutes.. Remove contact lenses, if present and easy to do. Continue. rinsing."}, {"code": "P337 + P313", "statement": "If eye irritation persists: Get medical advice/ attention."}, {"code": "P370 + P378", "statement": "In case of fire: Use dry sand, dry chemical or alcohol-resistant. foam to extinguish."}, {"code": "P403 + P235", "statement": "Store in a well-ventilated place. Keep cool."}, {"code": "P501", "statement": "Dispose of contents/ container to an approved waste disposal. plant."}, {"code": "H272", "statement": "May intensify fire; oxidizer."}, {"code": "H319", "statement": "Causes serious eye irritation.. Precautionary statement(s)"}, {"code": "P210", "statement": "Keep away from heat."}, {"code": "P220", "statement": "Keep/Store away from clothing/ combustible materials."}, {"code": "P221", "statement": "Take any precaution to avoid mixing with combustibles."}, {"code": "P264", "statement": "Wash skin thoroughly after handling."}, {"code": "P280", "statement": "Wear protective gloves/ eye protection/ face protection."}, {"code": "P305 + P351 + P338", "statement": "IF IN EYES: Rinse cautiously with water for several minutes.. Remove contact lenses, if present and easy to do. Continue. rinsing."}, {"code": "P337 + P313", "statement": "If eye irritation persists: Get medical advice/ attention."}, {"code": "P370 + P378", "statement": "In case of fire: Use dry sand, dry chemical or alcohol-resistant. foam to extinguish."}, {"code": "P501", "statement": "Dispose of contents/ container to an approved waste disposal. plant."}], "canonical_smiles": "O=[Fe]", "isomeric_smiles": "O=[Fe]"}, {"id": 20594, "product_number": "488305", "CAS_number": "13183-67-0", "product_name": "Butane-1,1,1,4,4,4-d6", "product_brand": "Aldrich", "supplier": {"company": ":  Sigma-Aldrich Inc.", "location": "3050 SPRUCE ST. ST. LOUIS MO  63103. UNITED STATES", "tel": ":  +1 314 771-5765", "fax": ":  +1 800 325-5052"}, "formula": ":  C4D6H4", "mw": ":  64.16 g/mol", "ec": "No data available", "appearance": "Form: Liquefied gas", "odor": "No data available", "pH": "No data available", "melting_point": "Melting point/range: -138 \u00b0C (-216 \u00b0F) - lit.. point/freezing point", "flash_point": "()No data available", "evaporation_rate": "No data available", "flammability": "No data available. gas)", "vapor_pressure": "2,426 hPa at 25.00 \u00b0C (77.00 \u00b0F). 3,556.67 hPa at 37.70 \u00b0C(99.86 \u00b0F)", "vapor_density": "No data available", "density": "No data available. Relative density. No data available", "water_solubility": "No data available", "partition_coefficient": "log Pow: 2.890. n-octanol/water", "autoignition": "No data available. temperature", "decomposition": "No data available. temperature", "viscosity": "No data available", "explosive_properties": "No data available", "oxidizing_properties": "No data available", "bulk_density": "No data available", "particle_size": "No data available", "statements": [{"code": "H220", "statement": "Extremely flammable gas."}, {"code": "H280", "statement": "Contains gas under pressure; may explode if heated.. May displace oxygen and cause rapid suffocation.. Precautionary statement(s)"}, {"code": "P210", "statement": "Keep away from heat/ sparks/ open flames/ hot surfaces. No. smoking."}, {"code": "P377", "statement": "Leaking gas fire: Do not extinguish, unless leak can be stopped. safely."}, {"code": "P381", "statement": "Eliminate all ignition sources if safe to do so."}, {"code": "P410 + P403", "statement": "Protect from sunlight. Store in a well-ventilated place."}, {"code": "H225", "statement": "Highly flammable liquid and vapor."}, {"code": "H319", "statement": "Causes serious eye irritation.. Precautionary statement(s)"}, {"code": "P210", "statement": "Keep away from heat/ sparks/ open flames/ hot surfaces. No. smoking."}, {"code": "P233", "statement": "Keep container tightly closed."}, {"code": "P240", "statement": "Ground/bond container and receiving equipment."}, {"code": "P241", "statement": "Use explosion-proof electrical/ ventilating/ lighting/ equipment."}, {"code": "P242", "statement": "Use only non-sparking tools."}, {"code": "P243", "statement": "Take precautionary measures against static discharge."}, {"code": "P264", "statement": "Wash skin thoroughly after handling."}, {"code": "P280", "statement": "Wear protective gloves/ eye protection/ face protection."}, {"code": "P303 + P361 + P353", "statement": "IF ON SKIN (or hair): Take off immediately all contaminated. clothing. Rinse skin with water/ shower."}, {"code": "P305 + P351 + P338", "statement": "IF IN EYES: Rinse cautiously with water for several minutes.. Remove contact lenses, if present and easy to do. Continue. rinsing."}, {"code": "P337 + P313", "statement": "If eye irritation persists: Get medical advice/ attention."}, {"code": "P370 + P378", "statement": "In case of fire: Use dry sand, dry chemical or alcohol-resistant. foam to extinguish."}, {"code": "P403 + P235", "statement": "Store in a well-ventilated place. Keep cool."}, {"code": "P501", "statement": "Dispose of contents/ container to an approved waste disposal. plant."}, {"code": "H272", "statement": "May intensify fire; oxidizer."}, {"code": "H319", "statement": "Causes serious eye irritation.. Precautionary statement(s)"}, {"code": "P210", "statement": "Keep away from heat."}, {"code": "P220", "statement": "Keep/Store away from clothing/ combustible materials."}, {"code": "P221", "statement": "Take any precaution to avoid mixing with combustibles."}, {"code": "P264", "statement": "Wash skin thoroughly after handling."}, {"code": "P280", "statement": "Wear protective gloves/ eye protection/ face protection."}, {"code": "P305 + P351 + P338", "statement": "IF IN EYES: Rinse cautiously with water for several minutes.. Remove contact lenses, if present and easy to do. Continue. rinsing."}, {"code": "P337 + P313", "statement": "If eye irritation persists: Get medical advice/ attention."}, {"code": "P370 + P378", "statement": "In case of fire: Use dry sand, dry chemical or alcohol-resistant. foam to extinguish."}, {"code": "P501", "statement": "Dispose of contents/ container to an approved waste disposal. plant."}], "canonical_smiles": "CCCC", "isomeric_smiles": "[2H]C([2H])([2H])CCC([2H])([2H])[2H]"}, {"id": 3930, "product_number": "A154", "CAS_number": "23052-80-4", "product_name": "L-(+)-2-Amino-3-phosphonopropionic acid", "product_brand": "Aldrich", "supplier": {"company": ":  Sigma-Aldrich Inc.", "location": "3050 SPRUCE ST. ST. LOUIS MO  63103. UNITED STATES", "tel": ":  +1 314 771-5765", "fax": ":  +1 800 325-5052"}, "formula": ":  C3H8NO5P", "mw": ":  169.07 g/mol", "ec": "No data available", "appearance": "Form: powder. Color: white", "odor": "No data available", "pH": "No data available", "melting_point": "No data available. point/freezing point", "flash_point": "()No data available", "evaporation_rate": "No data available", "flammability": "No data available. gas)", "vapor_pressure": "No data available", "vapor_density": "No data available", "density": "No data available. Relative density. No data available", "water_solubility": "No data available", "partition_coefficient": "No data available. n-octanol/water", "autoignition": "No data available. temperature", "decomposition": "No data available. temperature", "viscosity": "No data available", "explosive_properties": "No data available", "oxidizing_properties": "No data available", "bulk_density": "No data available", "particle_size": "No data available", "statements": [{"code": "H220", "statement": "Extremely flammable gas."}, {"code": "H280", "statement": "Contains gas under pressure; may explode if heated.. May displace oxygen and cause rapid suffocation.. Precautionary statement(s)"}, {"code": "P210", "statement": "Keep away from heat/ sparks/ open flames/ hot surfaces. No. smoking."}, {"code": "P377", "statement": "Leaking gas fire: Do not extinguish, unless leak can be stopped. safely."}, {"code": "P381", "statement": "Eliminate all ignition sources if safe to do so."}, {"code": "P410 + P403", "statement": "Protect from sunlight. Store in a well-ventilated place."}, {"code": "H225", "statement": "Highly flammable liquid and vapor."}, {"code": "H319", "statement": "Causes serious eye irritation.. Precautionary statement(s)"}, {"code": "P210", "statement": "Keep away from heat/ sparks/ open flames/ hot surfaces. No. smoking."}, {"code": "P233", "statement": "Keep container tightly closed."}, {"code": "P240", "statement": "Ground/bond container and receiving equipment."}, {"code": "P241", "statement": "Use explosion-proof electrical/ ventilating/ lighting/ equipment."}, {"code": "P242", "statement": "Use only non-sparking tools."}, {"code": "P243", "statement": "Take precautionary measures against static discharge."}, {"code": "P264", "statement": "Wash skin thoroughly after handling."}, {"code": "P280", "statement": "Wear protective gloves/ eye protection/ face protection."}, {"code": "P303 + P361 + P353", "statement": "IF ON SKIN (or hair): Take off immediately all contaminated. clothing. Rinse skin with water/ shower."}, {"code": "P305 + P351 + P338", "statement": "IF IN EYES: Rinse cautiously with water for several minutes.. Remove contact lenses, if present and easy to do. Continue. rinsing."}, {"code": "P337 + P313", "statement": "If eye irritation persists: Get medical advice/ attention."}, {"code": "P370 + P378", "statement": "In case of fire: Use dry sand, dry chemical or alcohol-resistant. foam to extinguish."}, {"code": "P403 + P235", "statement": "Store in a well-ventilated place. Keep cool."}, {"code": "P501", "statement": "Dispose of contents/ container to an approved waste disposal. plant."}, {"code": "H272", "statement": "May intensify fire; oxidizer."}, {"code": "H319", "statement": "Causes serious eye irritation.. Precautionary statement(s)"}, {"code": "P210", "statement": "Keep away from heat."}, {"code": "P220", "statement": "Keep/Store away from clothing/ combustible materials."}, {"code": "P221", "statement": "Take any precaution to avoid mixing with combustibles."}, {"code": "P264", "statement": "Wash skin thoroughly after handling."}, {"code": "P280", "statement": "Wear protective gloves/ eye protection/ face protection."}, {"code": "P305 + P351 + P338", "statement": "IF IN EYES: Rinse cautiously with water for several minutes.. Remove contact lenses, if present and easy to do. Continue. rinsing."}, {"code": "P337 + P313", "statement": "If eye irritation persists: Get medical advice/ attention."}, {"code": "P370 + P378", "statement": "In case of fire: Use dry sand, dry chemical or alcohol-resistant. foam to extinguish."}, {"code": "P501", "statement": "Dispose of contents/ container to an approved waste disposal. plant."}], "canonical_smiles": "C(C(C(=O)O)N)P(=O)(O)O", "isomeric_smiles": "C([C@@H](C(=O)O)N)P(=O)(O)O"}, {"id": 3894, "product_number": "F8549", "CAS_number": "40666-16-8", "product_name": "Fluprostenol", "product_brand": "Sigma", "supplier": {"company": ":  Sigma-Aldrich Inc.", "location": "3050 SPRUCE ST. ST. LOUIS MO  63103. UNITED STATES", "tel": ":  +1 314 771-5765", "fax": ":  +1 800 325-5052"}, "formula": "No data available", "mw": "No data available", "ec": "No data available", "appearance": "No data available", "odor": "No data available", "pH": "No data available", "melting_point": "No data available", "flash_point": "No data available", "evaporation_rate": "No data available", "flammability": "No data available", "vapor_pressure": "No data available", "vapor_density": "No data available", "density": "No data available", "water_solubility": "No data available", "partition_coefficient": "No data available", "autoignition": "No data available", "decomposition": "No data available", "viscosity": "No data available", "explosive_properties": "No data available", "oxidizing_properties": "No data available", "bulk_density": "No data available", "particle_size": "No data available", "statements": [{"code": "H220", "statement": "Extremely flammable gas."}, {"code": "H280", "statement": "Contains gas under pressure; may explode if heated.. May displace oxygen and cause rapid suffocation.. Precautionary statement(s)"}, {"code": "P210", "statement": "Keep away from heat/ sparks/ open flames/ hot surfaces. No. smoking."}, {"code": "P377", "statement": "Leaking gas fire: Do not extinguish, unless leak can be stopped. safely."}, {"code": "P381", "statement": "Eliminate all ignition sources if safe to do so."}, {"code": "P410 + P403", "statement": "Protect from sunlight. Store in a well-ventilated place."}, {"code": "H225", "statement": "Highly flammable liquid and vapor."}, {"code": "H319", "statement": "Causes serious eye irritation.. Precautionary statement(s)"}, {"code": "P210", "statement": "Keep away from heat/ sparks/ open flames/ hot surfaces. No. smoking."}, {"code": "P233", "statement": "Keep container tightly closed."}, {"code": "P240", "statement": "Ground/bond container and receiving equipment."}, {"code": "P241", "statement": "Use explosion-proof electrical/ ventilating/ lighting/ equipment."}, {"code": "P242", "statement": "Use only non-sparking tools."}, {"code": "P243", "statement": "Take precautionary measures against static discharge."}, {"code": "P264", "statement": "Wash skin thoroughly after handling."}, {"code": "P280", "statement": "Wear protective gloves/ eye protection/ face protection."}, {"code": "P303 + P361 + P353", "statement": "IF ON SKIN (or hair): Take off immediately all contaminated. clothing. Rinse skin with water/ shower."}, {"code": "P305 + P351 + P338", "statement": "IF IN EYES: Rinse cautiously with water for several minutes.. Remove contact lenses, if present and easy to do. Continue. rinsing."}, {"code": "P337 + P313", "statement": "If eye irritation persists: Get medical advice/ attention."}, {"code": "P370 + P378", "statement": "In case of fire: Use dry sand, dry chemical or alcohol-resistant. foam to extinguish."}, {"code": "P403 + P235", "statement": "Store in a well-ventilated place. Keep cool."}, {"code": "P501", "statement": "Dispose of contents/ container to an approved waste disposal. plant."}, {"code": "H272", "statement": "May intensify fire; oxidizer."}, {"code": "H319", "statement": "Causes serious eye irritation.. Precautionary statement(s)"}, {"code": "P210", "statement": "Keep away from heat."}, {"code": "P220", "statement": "Keep/Store away from clothing/ combustible materials."}, {"code": "P221", "statement": "Take any precaution to avoid mixing with combustibles."}, {"code": "P264", "statement": "Wash skin thoroughly after handling."}, {"code": "P280", "statement": "Wear protective gloves/ eye protection/ face protection."}, {"code": "P305 + P351 + P338", "statement": "IF IN EYES: Rinse cautiously with water for several minutes.. Remove contact lenses, if present and easy to do. Continue. rinsing."}, {"code": "P337 + P313", "statement": "If eye irritation persists: Get medical advice/ attention."}, {"code": "P370 + P378", "statement": "In case of fire: Use dry sand, dry chemical or alcohol-resistant. foam to extinguish."}, {"code": "P501", "statement": "Dispose of contents/ container to an approved waste disposal. plant."}], "canonical_smiles": "C1C(C(C(C1O)C=CC(COC2=CC=CC(=C2)C(F)(F)F)O)CC=CCCCC(=O)O)O", "isomeric_smiles": "C1[C@@H]([C@@H]([C@H]([C@@H]1O)/C=C/[C@H](COC2=CC=CC(=C2)C(F)(F)F)O)C/C=C\\CCCC(=O)O)O"}, {"id": 1859, "product_number": "S5022", "CAS_number": "7631-99-4", "product_name": "Sodium nitrate", "product_brand": "Sigma", "supplier": {"company": ":  Sigma-Aldrich Inc.", "location": "3050 SPRUCE ST. ST. LOUIS MO  63103. UNITED STATES", "tel": ":  +1 314 771-5765", "fax": ":  +1 800 325-5052"}, "formula": ":  NNaO3", "mw": ":  84.99 g/mol", "ec": ":  231-554-3. TabulaTable(extraction_method=stream, page_number=2, top=355.0, bottom=413.0, left=80.0, right=558.0, width=478.0, height=58.0, data=\n+--------------+-------------------------------------+-------------+\n|Component     |Classification                       |Concentration|\n+--------------+-------------------------------------+-------------+\n|sodium nitrate|                                     |             |\n+--------------+-------------------------------------+-------------+\n|sodium nitrate|Ox. Sol. 3; Eye Irrit. 2A; H272, H319|<= 100 %     |\n+--------------+-------------------------------------+-------------+\n, additional_ops=['strip_text', 'merge_rows', 'pull_down_to_empty'])", "appearance": "Form: solid", "odor": "No data available", "pH": "5.5 - 8.0 at 50 g/l at 20 \u00b0C (68 \u00b0F)", "melting_point": "Melting point: 308 \u00b0C (586 \u00b0F). point/freezing point", "flash_point": "()does not flash", "evaporation_rate": "No data available", "flammability": "The product is not flammable.. gas)", "vapor_pressure": "No data available", "vapor_density": "Not applicable", "density": "No data available", "water_solubility": "874 g/l at 20 \u00b0C (68 \u00b0F) - soluble", "partition_coefficient": "Not applicable for inorganic substances. n-octanol/water", "autoignition": "No data available. temperature", "decomposition": "No data available. temperature", "viscosity": "No data available", "explosive_properties": "No data available", "oxidizing_properties": "category 3.", "bulk_density": "No data available", "particle_size": "No data available", "statements": [{"code": "H220", "statement": "Extremely flammable gas."}, {"code": "H280", "statement": "Contains gas under pressure; may explode if heated.. May displace oxygen and cause rapid suffocation.. Precautionary statement(s)"}, {"code": "P210", "statement": "Keep away from heat/ sparks/ open flames/ hot surfaces. No. smoking."}, {"code": "P377", "statement": "Leaking gas fire: Do not extinguish, unless leak can be stopped. safely."}, {"code": "P381", "statement": "Eliminate all ignition sources if safe to do so."}, {"code": "P410 + P403", "statement": "Protect from sunlight. Store in a well-ventilated place."}, {"code": "H225", "statement": "Highly flammable liquid and vapor."}, {"code": "H319", "statement": "Causes serious eye irritation.. Precautionary statement(s)"}, {"code": "P210", "statement": "Keep away from heat/ sparks/ open flames/ hot surfaces. No. smoking."}, {"code": "P233", "statement": "Keep container tightly closed."}, {"code": "P240", "statement": "Ground/bond container and receiving equipment."}, {"code": "P241", "statement": "Use explosion-proof electrical/ ventilating/ lighting/ equipment."}, {"code": "P242", "statement": "Use only non-sparking tools."}, {"code": "P243", "statement": "Take precautionary measures against static discharge."}, {"code": "P264", "statement": "Wash skin thoroughly after handling."}, {"code": "P280", "statement": "Wear protective gloves/ eye protection/ face protection."}, {"code": "P303 + P361 + P353", "statement": "IF ON SKIN (or hair): Take off immediately all contaminated. clothing. Rinse skin with water/ shower."}, {"code": "P305 + P351 + P338", "statement": "IF IN EYES: Rinse cautiously with water for several minutes.. Remove contact lenses, if present and easy to do. Continue. rinsing."}, {"code": "P337 + P313", "statement": "If eye irritation persists: Get medical advice/ attention."}, {"code": "P370 + P378", "statement": "In case of fire: Use dry sand, dry chemical or alcohol-resistant. foam to extinguish."}, {"code": "P403 + P235", "statement": "Store in a well-ventilated place. Keep cool."}, {"code": "P501", "statement": "Dispose of contents/ container to an approved waste disposal. plant."}, {"code": "H272", "statement": "May intensify fire; oxidizer."}, {"code": "H319", "statement": "Causes serious eye irritation.. Precautionary statement(s)"}, {"code": "P210", "statement": "Keep away from heat."}, {"code": "P220", "statement": "Keep/Store away from clothing/ combustible materials."}, {"code": "P221", "statement": "Take any precaution to avoid mixing with combustibles."}, {"code": "P264", "statement": "Wash skin thoroughly after handling."}, {"code": "P280", "statement": "Wear protective gloves/ eye protection/ face protection."}, {"code": "P305 + P351 + P338", "statement": "IF IN EYES: Rinse cautiously with water for several minutes.. Remove contact lenses, if present and easy to do. Continue. rinsing."}, {"code": "P337 + P313", "statement": "If eye irritation persists: Get medical advice/ attention."}, {"code": "P370 + P378", "statement": "In case of fire: Use dry sand, dry chemical or alcohol-resistant. foam to extinguish."}, {"code": "P501", "statement": "Dispose of contents/ container to an approved waste disposal. plant."}], "canonical_smiles": "[N+](=O)([O-])[O-].[Na+]", "isomeric_smiles": "[N+](=O)([O-])[O-].[Na+]"}]