[{"id": 8262, "product_number": "732206", "CAS_number": "1293946-38-9", "product_name": "(1S,2S)-N-p-Tosyl-1,2-di(1-", "product_brand": "Aldrich", "supplier": {"company": ":  Sigma-Aldrich Inc.", "location": "3050 SPRUCE ST. ST. LOUIS MO  63103. UNITED STATES", "tel": ":  +1 314 771-5765", "fax": ":  +1 800 325-5052"}, "formula": ":  C29H26N2O2S", "mw": ":  466.59 g/mol", "ec": "No data available", "appearance": "Form: solid", "odor": "No data available", "pH": "No data available", "melting_point": "181 - 186 \u00b0C (358 - 367 \u00b0F). point/freezing point", "flash_point": "()No data available", "evaporation_rate": "No data available", "flammability": "No data available. gas)", "vapor_pressure": "No data available", "vapor_density": "No data available", "density": "No data available", "water_solubility": "No data available", "partition_coefficient": "No data available. n-octanol/water", "autoignition": "No data available", "decomposition": "No data available. temperature", "viscosity": "No data available", "explosive_properties": "No data available", "oxidizing_properties": "No data available", "bulk_density": "No data available", "particle_size": "No data available", "statements": [{"code": "H302", "statement": "Harmful if swallowed.. Precautionary statement(s)"}, {"code": "P264", "statement": "Wash skin thoroughly after handling."}, {"code": "P270", "statement": "Do not eat, drink or smoke when using this product."}, {"code": "P301 + P312", "statement": "IF SWALLOWED: Call a POISON CENTER/doctor if you feel. unwell."}, {"code": "P330", "statement": "Rinse mouth."}, {"code": "P501", "statement": "Dispose of contents/ container to an approved waste disposal. plant."}, {"code": "H302", "statement": "Harmful if swallowed."}, {"code": "H315", "statement": "Causes skin irritation."}, {"code": "H318", "statement": "Causes serious eye damage."}, {"code": "H335", "statement": "May cause respiratory irritation.. Precautionary statement(s)"}, {"code": "P261", "statement": "Avoid breathing dust/ fume/ gas/ mist/ vapors/ spray."}, {"code": "P264", "statement": "Wash skin thoroughly after handling."}, {"code": "P270", "statement": "Do not eat, drink or smoke when using this product."}, {"code": "P271", "statement": "Use only outdoors or in a well-ventilated area."}, {"code": "P280", "statement": "Wear protective gloves/ eye protection/ face protection."}, {"code": "P301 + P312 + P330", "statement": "IF SWALLOWED: Call a POISON CENTER/ doctor if you feel. unwell. Rinse mouth."}, {"code": "P302 + P352", "statement": "IF ON SKIN: Wash with plenty of soap and water."}, {"code": "P304 + P340 + P312", "statement": "IF INHALED: Remove person to fresh air and keep comfortable. for breathing. Call a POISON CENTER/ doctor if you feel unwell."}, {"code": "P305 + P351 + P338 +", "statement": "IF IN EYES: Rinse cautiously with water for several minutes."}, {"code": "P310", "statement": "Remove contact lenses, if present and easy to do. Continue. rinsing. Immediately call a POISON CENTER/ doctor."}, {"code": "P332 + P313", "statement": "If skin irritation occurs: Get medical advice/ attention."}, {"code": "P362", "statement": "Take off contaminated clothing and wash before reuse."}, {"code": "P403 + P233", "statement": "Store in a well-ventilated place. Keep container tightly closed."}, {"code": "P405", "statement": "Store locked up."}, {"code": "P501", "statement": "Dispose of contents/ container to an approved waste disposal. plant."}, {"code": "H360", "statement": "May damage fertility or the unborn child."}, {"code": "H228", "statement": "Flammable solid."}, {"code": "H410", "statement": "Very toxic to aquatic life with long lasting effects.. Precautionary statement(s)"}, {"code": "P210", "statement": "Keep away from heat/ sparks/ open flames/ hot surfaces. No. smoking."}, {"code": "P240", "statement": "Ground/bond container and receiving equipment."}, {"code": "P241", "statement": "Use explosion-proof electrical/ ventilating/ lighting/ equipment."}, {"code": "P273", "statement": "Avoid release to the environment."}, {"code": "P280", "statement": "Wear protective gloves/ eye protection/ face protection."}, {"code": "P370 + P378", "statement": "In case of fire: Use dry sand, dry chemical or alcohol-resistant. foam to extinguish."}, {"code": "P391", "statement": "Collect spillage."}, {"code": "P501", "statement": "Dispose of contents/ container to an approved waste disposal. plant."}], "canonical_smiles": "No data available", "isomeric_smiles": "No data available"}, {"id": 28189, "product_number": "691526", "CAS_number": "259860-08-7", "product_name": "6-Bromo-5-fluoroindole", "product_brand": "Aldrich", "supplier": {"company": ":  Sigma-Aldrich Inc.", "location": "3050 SPRUCE ST. ST. LOUIS MO  63103. UNITED STATES", "tel": ":  +1 314 771-5765", "fax": ":  +1 800 325-5052"}, "formula": ":  C8H5BrFN", "mw": ":  214.03 g/mol", "ec": "No data available", "appearance": "Form: solid", "odor": "No data available", "pH": "No data available", "melting_point": "Melting point/range: 82 - 84 \u00b0C (180 - 183 \u00b0F). point/freezing point", "flash_point": "()No data available", "evaporation_rate": "No data available", "flammability": "No data available. gas)", "vapor_pressure": "No data available", "vapor_density": "No data available", "density": "No data available. Relative density. No data available", "water_solubility": "No data available", "partition_coefficient": "log Pow: 3.106. n-octanol/water", "autoignition": "No data available. temperature", "decomposition": "No data available. temperature", "viscosity": "No data available", "explosive_properties": "No data available", "oxidizing_properties": "No data available", "bulk_density": "No data available", "particle_size": "No data available", "statements": [{"code": "H302", "statement": "Harmful if swallowed.. Precautionary statement(s)"}, {"code": "P264", "statement": "Wash skin thoroughly after handling."}, {"code": "P270", "statement": "Do not eat, drink or smoke when using this product."}, {"code": "P301 + P312", "statement": "IF SWALLOWED: Call a POISON CENTER/doctor if you feel. unwell."}, {"code": "P330", "statement": "Rinse mouth."}, {"code": "P501", "statement": "Dispose of contents/ container to an approved waste disposal. plant."}, {"code": "H302", "statement": "Harmful if swallowed."}, {"code": "H315", "statement": "Causes skin irritation."}, {"code": "H318", "statement": "Causes serious eye damage."}, {"code": "H335", "statement": "May cause respiratory irritation.. Precautionary statement(s)"}, {"code": "P261", "statement": "Avoid breathing dust/ fume/ gas/ mist/ vapors/ spray."}, {"code": "P264", "statement": "Wash skin thoroughly after handling."}, {"code": "P270", "statement": "Do not eat, drink or smoke when using this product."}, {"code": "P271", "statement": "Use only outdoors or in a well-ventilated area."}, {"code": "P280", "statement": "Wear protective gloves/ eye protection/ face protection."}, {"code": "P301 + P312 + P330", "statement": "IF SWALLOWED: Call a POISON CENTER/ doctor if you feel. unwell. Rinse mouth."}, {"code": "P302 + P352", "statement": "IF ON SKIN: Wash with plenty of soap and water."}, {"code": "P304 + P340 + P312", "statement": "IF INHALED: Remove person to fresh air and keep comfortable. for breathing. Call a POISON CENTER/ doctor if you feel unwell."}, {"code": "P305 + P351 + P338 +", "statement": "IF IN EYES: Rinse cautiously with water for several minutes."}, {"code": "P310", "statement": "Remove contact lenses, if present and easy to do. Continue. rinsing. Immediately call a POISON CENTER/ doctor."}, {"code": "P332 + P313", "statement": "If skin irritation occurs: Get medical advice/ attention."}, {"code": "P362", "statement": "Take off contaminated clothing and wash before reuse."}, {"code": "P403 + P233", "statement": "Store in a well-ventilated place. Keep container tightly closed."}, {"code": "P405", "statement": "Store locked up."}, {"code": "P501", "statement": "Dispose of contents/ container to an approved waste disposal. plant."}, {"code": "H360", "statement": "May damage fertility or the unborn child."}, {"code": "H228", "statement": "Flammable solid."}, {"code": "H410", "statement": "Very toxic to aquatic life with long lasting effects.. Precautionary statement(s)"}, {"code": "P210", "statement": "Keep away from heat/ sparks/ open flames/ hot surfaces. No. smoking."}, {"code": "P240", "statement": "Ground/bond container and receiving equipment."}, {"code": "P241", "statement": "Use explosion-proof electrical/ ventilating/ lighting/ equipment."}, {"code": "P273", "statement": "Avoid release to the environment."}, {"code": "P280", "statement": "Wear protective gloves/ eye protection/ face protection."}, {"code": "P370 + P378", "statement": "In case of fire: Use dry sand, dry chemical or alcohol-resistant. foam to extinguish."}, {"code": "P391", "statement": "Collect spillage."}, {"code": "P501", "statement": "Dispose of contents/ container to an approved waste disposal. plant."}], "canonical_smiles": "C1=CNC2=CC(=C(C=C21)F)Br", "isomeric_smiles": "C1=CNC2=CC(=C(C=C21)F)Br"}, {"id": 28208, "product_number": "1229409", "CAS_number": "67392-87-4", "product_name": "Drospiresolidne, United States Pharmacopeia", "product_brand": "US Pharmacopeia", "supplier": {"company": ":  Sigma-Aldrich Inc.", "location": "3050 SPRUCE ST. ST. LOUIS MO  63103. UNITED STATES", "tel": ":  +1 314 771-5765", "fax": ":  +1 800 325-5052"}, "formula": "No data available", "mw": ":  366.49 g/mol", "ec": "No data available", "appearance": "Form: solid", "odor": "No data available", "pH": "No data available", "melting_point": "Melting point/freezing point: 196 - 202 \u00b0C (385 - 396 \u00b0F). point/freezing point", "flash_point": "()No data available", "evaporation_rate": "No data available", "flammability": "No data available. gas)", "vapor_pressure": "No data available", "vapor_density": "No data available", "density": "No data available. Relative density. No data available", "water_solubility": "No data available", "partition_coefficient": "No data available. n-octanol/water", "autoignition": "No data available. temperature", "decomposition": "No data available. temperature", "viscosity": "No data available", "explosive_properties": "No data available", "oxidizing_properties": "No data available", "bulk_density": "No data available", "particle_size": "No data available", "statements": [{"code": "H302", "statement": "Harmful if swallowed.. Precautionary statement(s)"}, {"code": "P264", "statement": "Wash skin thoroughly after handling."}, {"code": "P270", "statement": "Do not eat, drink or smoke when using this product."}, {"code": "P301 + P312", "statement": "IF SWALLOWED: Call a POISON CENTER/doctor if you feel. unwell."}, {"code": "P330", "statement": "Rinse mouth."}, {"code": "P501", "statement": "Dispose of contents/ container to an approved waste disposal. plant."}, {"code": "H302", "statement": "Harmful if swallowed."}, {"code": "H315", "statement": "Causes skin irritation."}, {"code": "H318", "statement": "Causes serious eye damage."}, {"code": "H335", "statement": "May cause respiratory irritation.. Precautionary statement(s)"}, {"code": "P261", "statement": "Avoid breathing dust/ fume/ gas/ mist/ vapors/ spray."}, {"code": "P264", "statement": "Wash skin thoroughly after handling."}, {"code": "P270", "statement": "Do not eat, drink or smoke when using this product."}, {"code": "P271", "statement": "Use only outdoors or in a well-ventilated area."}, {"code": "P280", "statement": "Wear protective gloves/ eye protection/ face protection."}, {"code": "P301 + P312 + P330", "statement": "IF SWALLOWED: Call a POISON CENTER/ doctor if you feel. unwell. Rinse mouth."}, {"code": "P302 + P352", "statement": "IF ON SKIN: Wash with plenty of soap and water."}, {"code": "P304 + P340 + P312", "statement": "IF INHALED: Remove person to fresh air and keep comfortable. for breathing. Call a POISON CENTER/ doctor if you feel unwell."}, {"code": "P305 + P351 + P338 +", "statement": "IF IN EYES: Rinse cautiously with water for several minutes."}, {"code": "P310", "statement": "Remove contact lenses, if present and easy to do. Continue. rinsing. Immediately call a POISON CENTER/ doctor."}, {"code": "P332 + P313", "statement": "If skin irritation occurs: Get medical advice/ attention."}, {"code": "P362", "statement": "Take off contaminated clothing and wash before reuse."}, {"code": "P403 + P233", "statement": "Store in a well-ventilated place. Keep container tightly closed."}, {"code": "P405", "statement": "Store locked up."}, {"code": "P501", "statement": "Dispose of contents/ container to an approved waste disposal. plant."}, {"code": "H360", "statement": "May damage fertility or the unborn child."}, {"code": "H228", "statement": "Flammable solid."}, {"code": "H410", "statement": "Very toxic to aquatic life with long lasting effects.. Precautionary statement(s)"}, {"code": "P210", "statement": "Keep away from heat/ sparks/ open flames/ hot surfaces. No. smoking."}, {"code": "P240", "statement": "Ground/bond container and receiving equipment."}, {"code": "P241", "statement": "Use explosion-proof electrical/ ventilating/ lighting/ equipment."}, {"code": "P273", "statement": "Avoid release to the environment."}, {"code": "P280", "statement": "Wear protective gloves/ eye protection/ face protection."}, {"code": "P370 + P378", "statement": "In case of fire: Use dry sand, dry chemical or alcohol-resistant. foam to extinguish."}, {"code": "P391", "statement": "Collect spillage."}, {"code": "P501", "statement": "Dispose of contents/ container to an approved waste disposal. plant."}], "canonical_smiles": "No data available", "isomeric_smiles": "No data available"}, {"id": 21119, "product_number": "774081", "CAS_number": "7440-50-8", "product_name": "Copper", "product_brand": "Aldrich", "supplier": {"company": ":  Sigma-Aldrich Inc.", "location": "3050 SPRUCE ST. ST. LOUIS MO  63103. UNITED STATES", "tel": ":  +1 314 771-5765", "fax": ":  +1 800 325-5052"}, "formula": ":  Cu", "mw": ":  63.54 g/mol", "ec": ":  231-159-6. TabulaTable(extraction_method=stream, page_number=2, top=346.0, bottom=440.0, left=80.0, right=558.0, width=478.0, height=94.0, data=\n+---------+---------------------------------------------------------------------------------------------------------------------+-------------+\n|Component|Classification                                                                                                       |Concentration|\n+---------+---------------------------------------------------------------------------------------------------------------------+-------------+\n|Copper   |                                                                                                                     |             |\n+---------+---------------------------------------------------------------------------------------------------------------------+-------------+\n|Copper   |Flam. Sol. 1; Aquatic Acute 1; Aquatic Chronic 1; H228, H400, H410 M-Factor - Aquatic Acute: 10 - Aquatic Chronic: 10|<= 100 %     |\n+---------+---------------------------------------------------------------------------------------------------------------------+-------------+\n, additional_ops=['strip_text', 'merge_rows', 'pull_down_to_empty'])", "appearance": "Form: powder. Color: light red", "odor": "No data available", "pH": "No data available", "melting_point": "Melting point/freezing point: 1,083 \u00b0C (1,981 \u00b0F). point/freezing point", "flash_point": "()Not applicable", "evaporation_rate": "No data available", "flammability": "The substance or mixture is a flammable solid with the category. gas). 1.", "vapor_pressure": "No data available", "vapor_density": "No data available", "density": "8.940 g/cm3. Relative density. No data available", "water_solubility": "0.001 g/l at 30 \u00b0C (86 \u00b0F) - insoluble", "partition_coefficient": "Not applicable for inorganic substances. n-octanol/water", "autoignition": "No data available. temperature", "decomposition": "No data available. temperature", "viscosity": "No data available", "explosive_properties": "No data available", "oxidizing_properties": "No data available", "bulk_density": "No data available", "particle_size": "No data available", "statements": [{"code": "H302", "statement": "Harmful if swallowed.. Precautionary statement(s)"}, {"code": "P264", "statement": "Wash skin thoroughly after handling."}, {"code": "P270", "statement": "Do not eat, drink or smoke when using this product."}, {"code": "P301 + P312", "statement": "IF SWALLOWED: Call a POISON CENTER/doctor if you feel. unwell."}, {"code": "P330", "statement": "Rinse mouth."}, {"code": "P501", "statement": "Dispose of contents/ container to an approved waste disposal. plant."}, {"code": "H302", "statement": "Harmful if swallowed."}, {"code": "H315", "statement": "Causes skin irritation."}, {"code": "H318", "statement": "Causes serious eye damage."}, {"code": "H335", "statement": "May cause respiratory irritation.. Precautionary statement(s)"}, {"code": "P261", "statement": "Avoid breathing dust/ fume/ gas/ mist/ vapors/ spray."}, {"code": "P264", "statement": "Wash skin thoroughly after handling."}, {"code": "P270", "statement": "Do not eat, drink or smoke when using this product."}, {"code": "P271", "statement": "Use only outdoors or in a well-ventilated area."}, {"code": "P280", "statement": "Wear protective gloves/ eye protection/ face protection."}, {"code": "P301 + P312 + P330", "statement": "IF SWALLOWED: Call a POISON CENTER/ doctor if you feel. unwell. Rinse mouth."}, {"code": "P302 + P352", "statement": "IF ON SKIN: Wash with plenty of soap and water."}, {"code": "P304 + P340 + P312", "statement": "IF INHALED: Remove person to fresh air and keep comfortable. for breathing. Call a POISON CENTER/ doctor if you feel unwell."}, {"code": "P305 + P351 + P338 +", "statement": "IF IN EYES: Rinse cautiously with water for several minutes."}, {"code": "P310", "statement": "Remove contact lenses, if present and easy to do. Continue. rinsing. Immediately call a POISON CENTER/ doctor."}, {"code": "P332 + P313", "statement": "If skin irritation occurs: Get medical advice/ attention."}, {"code": "P362", "statement": "Take off contaminated clothing and wash before reuse."}, {"code": "P403 + P233", "statement": "Store in a well-ventilated place. Keep container tightly closed."}, {"code": "P405", "statement": "Store locked up."}, {"code": "P501", "statement": "Dispose of contents/ container to an approved waste disposal. plant."}, {"code": "H360", "statement": "May damage fertility or the unborn child."}, {"code": "H228", "statement": "Flammable solid."}, {"code": "H410", "statement": "Very toxic to aquatic life with long lasting effects.. Precautionary statement(s)"}, {"code": "P210", "statement": "Keep away from heat/ sparks/ open flames/ hot surfaces. No. smoking."}, {"code": "P240", "statement": "Ground/bond container and receiving equipment."}, {"code": "P241", "statement": "Use explosion-proof electrical/ ventilating/ lighting/ equipment."}, {"code": "P273", "statement": "Avoid release to the environment."}, {"code": "P280", "statement": "Wear protective gloves/ eye protection/ face protection."}, {"code": "P370 + P378", "statement": "In case of fire: Use dry sand, dry chemical or alcohol-resistant. foam to extinguish."}, {"code": "P391", "statement": "Collect spillage."}, {"code": "P501", "statement": "Dispose of contents/ container to an approved waste disposal. plant."}], "canonical_smiles": "[Cu]", "isomeric_smiles": "[Cu]"}, {"id": 3491, "product_number": "320072", "CAS_number": "7732-18-5", "product_name": "Water", "product_brand": "SIGALD", "supplier": {"company": ":  Sigma-Aldrich Inc.", "location": "3050 SPRUCE ST. ST. LOUIS MO  63103. UNITED STATES", "tel": ":  +1 314 771-5765", "fax": ":  +1 800 325-5052"}, "formula": ":  H2OH2O", "mw": ":  18.02 g/mol", "ec": ":  231-791-2. No components need to be disclosed according to the applicable regulations.", "appearance": "Form: liquid. Color: colorless", "odor": "No data available", "pH": "6.0 - 8.0 at 25 \u00b0C (77 \u00b0F)", "melting_point": "Melting point/range: 0.0 \u00b0C (32.0 \u00b0F). point/freezing point", "flash_point": "()Not applicable", "evaporation_rate": "No data available", "flammability": "No data available. gas)", "vapor_pressure": "No data available", "vapor_density": "No data available", "density": "1.000 g/cm3 at 3.98 \u00b0C (39.16 \u00b0F) - lit.. Relative density. No data available", "water_solubility": "completely miscible", "partition_coefficient": "log Pow: -0.467 - Bioaccumulation is not expected.. n-octanol/water", "autoignition": "No data available. temperature", "decomposition": "No data available. temperature", "viscosity": "No data available", "explosive_properties": "No data available", "oxidizing_properties": "No data available", "bulk_density": "No data available", "particle_size": "No data available", "statements": [{"code": "H302", "statement": "Harmful if swallowed.. Precautionary statement(s)"}, {"code": "P264", "statement": "Wash skin thoroughly after handling."}, {"code": "P270", "statement": "Do not eat, drink or smoke when using this product."}, {"code": "P301 + P312", "statement": "IF SWALLOWED: Call a POISON CENTER/doctor if you feel. unwell."}, {"code": "P330", "statement": "Rinse mouth."}, {"code": "P501", "statement": "Dispose of contents/ container to an approved waste disposal. plant."}, {"code": "H302", "statement": "Harmful if swallowed."}, {"code": "H315", "statement": "Causes skin irritation."}, {"code": "H318", "statement": "Causes serious eye damage."}, {"code": "H335", "statement": "May cause respiratory irritation.. Precautionary statement(s)"}, {"code": "P261", "statement": "Avoid breathing dust/ fume/ gas/ mist/ vapors/ spray."}, {"code": "P264", "statement": "Wash skin thoroughly after handling."}, {"code": "P270", "statement": "Do not eat, drink or smoke when using this product."}, {"code": "P271", "statement": "Use only outdoors or in a well-ventilated area."}, {"code": "P280", "statement": "Wear protective gloves/ eye protection/ face protection."}, {"code": "P301 + P312 + P330", "statement": "IF SWALLOWED: Call a POISON CENTER/ doctor if you feel. unwell. Rinse mouth."}, {"code": "P302 + P352", "statement": "IF ON SKIN: Wash with plenty of soap and water."}, {"code": "P304 + P340 + P312", "statement": "IF INHALED: Remove person to fresh air and keep comfortable. for breathing. Call a POISON CENTER/ doctor if you feel unwell."}, {"code": "P305 + P351 + P338 +", "statement": "IF IN EYES: Rinse cautiously with water for several minutes."}, {"code": "P310", "statement": "Remove contact lenses, if present and easy to do. Continue. rinsing. Immediately call a POISON CENTER/ doctor."}, {"code": "P332 + P313", "statement": "If skin irritation occurs: Get medical advice/ attention."}, {"code": "P362", "statement": "Take off contaminated clothing and wash before reuse."}, {"code": "P403 + P233", "statement": "Store in a well-ventilated place. Keep container tightly closed."}, {"code": "P405", "statement": "Store locked up."}, {"code": "P501", "statement": "Dispose of contents/ container to an approved waste disposal. plant."}, {"code": "H360", "statement": "May damage fertility or the unborn child."}, {"code": "H228", "statement": "Flammable solid."}, {"code": "H410", "statement": "Very toxic to aquatic life with long lasting effects.. Precautionary statement(s)"}, {"code": "P210", "statement": "Keep away from heat/ sparks/ open flames/ hot surfaces. No. smoking."}, {"code": "P240", "statement": "Ground/bond container and receiving equipment."}, {"code": "P241", "statement": "Use explosion-proof electrical/ ventilating/ lighting/ equipment."}, {"code": "P273", "statement": "Avoid release to the environment."}, {"code": "P280", "statement": "Wear protective gloves/ eye protection/ face protection."}, {"code": "P370 + P378", "statement": "In case of fire: Use dry sand, dry chemical or alcohol-resistant. foam to extinguish."}, {"code": "P391", "statement": "Collect spillage."}, {"code": "P501", "statement": "Dispose of contents/ container to an approved waste disposal. plant."}], "canonical_smiles": "O", "isomeric_smiles": "O"}, {"id": 2122, "product_number": "PHR2911", "CAS_number": "76824-16-3", "product_name": "Famotidine Related Compound D", "product_brand": "Sigma-Aldrich", "supplier": {"company": ":  Sigma-Aldrich Inc.", "location": "3050 SPRUCE ST. ST. LOUIS MO  63103. UNITED STATES", "tel": ":  +1 314 771-5765", "fax": ":  +1 800 325-5052"}, "formula": ":  C?H??N?OS?", "mw": ":  259.35 g/mol", "ec": "No data available", "appearance": "Form: powder. Color: white", "odor": "No data available", "pH": "No data available", "melting_point": "No data available. point/freezing point", "flash_point": "()Not applicable", "evaporation_rate": "No data available", "flammability": "No data available. gas)", "vapor_pressure": "No data available", "vapor_density": "No data available", "density": "No data available", "water_solubility": "No data available", "partition_coefficient": "No data available. n-octanol/water", "autoignition": "No data available. temperature", "decomposition": "No data available. temperature", "viscosity": "No data available", "explosive_properties": "No data available", "oxidizing_properties": "No data available", "bulk_density": "No data available", "particle_size": "No data available", "statements": [{"code": "H302", "statement": "Harmful if swallowed.. Precautionary statement(s)"}, {"code": "P264", "statement": "Wash skin thoroughly after handling."}, {"code": "P270", "statement": "Do not eat, drink or smoke when using this product."}, {"code": "P301 + P312", "statement": "IF SWALLOWED: Call a POISON CENTER/doctor if you feel. unwell."}, {"code": "P330", "statement": "Rinse mouth."}, {"code": "P501", "statement": "Dispose of contents/ container to an approved waste disposal. plant."}, {"code": "H302", "statement": "Harmful if swallowed."}, {"code": "H315", "statement": "Causes skin irritation."}, {"code": "H318", "statement": "Causes serious eye damage."}, {"code": "H335", "statement": "May cause respiratory irritation.. Precautionary statement(s)"}, {"code": "P261", "statement": "Avoid breathing dust/ fume/ gas/ mist/ vapors/ spray."}, {"code": "P264", "statement": "Wash skin thoroughly after handling."}, {"code": "P270", "statement": "Do not eat, drink or smoke when using this product."}, {"code": "P271", "statement": "Use only outdoors or in a well-ventilated area."}, {"code": "P280", "statement": "Wear protective gloves/ eye protection/ face protection."}, {"code": "P301 + P312 + P330", "statement": "IF SWALLOWED: Call a POISON CENTER/ doctor if you feel. unwell. Rinse mouth."}, {"code": "P302 + P352", "statement": "IF ON SKIN: Wash with plenty of soap and water."}, {"code": "P304 + P340 + P312", "statement": "IF INHALED: Remove person to fresh air and keep comfortable. for breathing. Call a POISON CENTER/ doctor if you feel unwell."}, {"code": "P305 + P351 + P338 +", "statement": "IF IN EYES: Rinse cautiously with water for several minutes."}, {"code": "P310", "statement": "Remove contact lenses, if present and easy to do. Continue. rinsing. Immediately call a POISON CENTER/ doctor."}, {"code": "P332 + P313", "statement": "If skin irritation occurs: Get medical advice/ attention."}, {"code": "P362", "statement": "Take off contaminated clothing and wash before reuse."}, {"code": "P403 + P233", "statement": "Store in a well-ventilated place. Keep container tightly closed."}, {"code": "P405", "statement": "Store locked up."}, {"code": "P501", "statement": "Dispose of contents/ container to an approved waste disposal. plant."}, {"code": "H360", "statement": "May damage fertility or the unborn child."}, {"code": "H228", "statement": "Flammable solid."}, {"code": "H410", "statement": "Very toxic to aquatic life with long lasting effects.. Precautionary statement(s)"}, {"code": "P210", "statement": "Keep away from heat/ sparks/ open flames/ hot surfaces. No. smoking."}, {"code": "P240", "statement": "Ground/bond container and receiving equipment."}, {"code": "P241", "statement": "Use explosion-proof electrical/ ventilating/ lighting/ equipment."}, {"code": "P273", "statement": "Avoid release to the environment."}, {"code": "P280", "statement": "Wear protective gloves/ eye protection/ face protection."}, {"code": "P370 + P378", "statement": "In case of fire: Use dry sand, dry chemical or alcohol-resistant. foam to extinguish."}, {"code": "P391", "statement": "Collect spillage."}, {"code": "P501", "statement": "Dispose of contents/ container to an approved waste disposal. plant."}], "canonical_smiles": "No data available", "isomeric_smiles": "No data available"}]