[{"id": 896, "product_number": "400010", "CAS_number": "143313-51-3", "product_name": "Caspase-1 Inhibitor I", "product_brand": "Millipore", "supplier": {"company": ":  Sigma-Aldrich Inc.", "location": "3050 SPRUCE ST. ST. LOUIS MO  63103. UNITED STATES", "tel": ":  +1 314 771-5765", "fax": ":  +1 800 325-5052"}, "formula": ":  C24H32N4O9", "mw": ":  492.5 g/mol", "ec": "No data available", "appearance": "Form: solid. Color: white", "odor": "No data available", "pH": "No data available", "melting_point": "No data available. point/freezing point", "flash_point": "()No data available", "evaporation_rate": "No data available", "flammability": "No data available. gas)", "vapor_pressure": "No data available", "vapor_density": "No data available", "density": "No data available", "water_solubility": "No data available", "partition_coefficient": "No data available. n-octanol/water", "autoignition": "No data available. temperature", "decomposition": "No data available. temperature", "viscosity": "No data available", "explosive_properties": "No data available", "oxidizing_properties": "No data available", "bulk_density": "No data available", "particle_size": "No data available", "statements": [{"code": "H302", "statement": "Harmful if swallowed."}, {"code": "H315", "statement": "Causes skin irritation."}, {"code": "H319", "statement": "Causes serious eye irritation."}, {"code": "H335", "statement": "May cause respiratory irritation.. Precautionary statement(s)"}, {"code": "P261", "statement": "Avoid breathing dust/ fume/ gas/ mist/ vapours/ spray."}, {"code": "P264", "statement": "Wash skin thoroughly after handling."}, {"code": "P270", "statement": "Do not eat, drink or smoke when using this product."}, {"code": "P271", "statement": "Use only outdoors or in a well-ventilated area."}, {"code": "P280", "statement": "Wear protective gloves/ eye protection/ face protection."}, {"code": "P301 + P312", "statement": "IF SWALLOWED: Call a POISON CENTER/doctor if you feel. unwell."}, {"code": "P302 + P352", "statement": "IF ON SKIN: Wash with plenty of soap and water."}, {"code": "P304 + P340", "statement": "IF INHALED: Remove victim to fresh air and keep at rest in a. position comfortable for breathing."}, {"code": "P305 + P351 + P338", "statement": "IF IN EYES: Rinse cautiously with water for several minutes.. Remove contact lenses, if present and easy to do. Continue. rinsing."}, {"code": "P312", "statement": "Call a POISON CENTER/doctor if you feel unwell."}, {"code": "P321", "statement": "Specific treatment (see supplemental first aid instructions on. this label)."}, {"code": "P330", "statement": "Rinse mouth."}, {"code": "P332 + P313", "statement": "If skin irritation occurs: Get medical advice/ attention."}, {"code": "P337 + P313", "statement": "If eye irritation persists: Get medical advice/ attention."}, {"code": "P362", "statement": "Take off contaminated clothing and wash before reuse."}, {"code": "P403 + P233", "statement": "Store in a well-ventilated place. Keep container tightly closed."}, {"code": "P405", "statement": "Store locked up."}, {"code": "P501", "statement": "Dispose of contents/ container to an approved waste disposal. plant."}, {"code": "H301", "statement": "Toxic if swallowed.. Precautionary statement(s)"}, {"code": "P264", "statement": "Wash skin thoroughly after handling."}, {"code": "P270", "statement": "Do not eat, drink or smoke when using this product."}, {"code": "P301 + P310 + P330", "statement": "IF SWALLOWED: Immediately call a POISON CENTER/ doctor.. Rinse mouth."}, {"code": "P405", "statement": "Store locked up."}, {"code": "P501", "statement": "Dispose of contents/ container to an approved waste disposal. plant."}, {"code": "H302", "statement": "Harmful if swallowed."}, {"code": "H411", "statement": "Toxic to aquatic life with long lasting effects.. Precautionary statement(s)"}, {"code": "P264", "statement": "Wash skin thoroughly after handling."}, {"code": "P270", "statement": "Do not eat, drink or smoke when using this product."}, {"code": "P273", "statement": "Avoid release to the environment."}, {"code": "P301 + P312 + P330", "statement": "IF SWALLOWED: Call a POISON CENTER/ doctor if you feel. unwell. Rinse mouth."}, {"code": "P391", "statement": "Collect spillage."}, {"code": "P501", "statement": "Dispose of contents/ container to an approved waste disposal. plant."}, {"code": "H315", "statement": "Causes skin irritation."}, {"code": "H319", "statement": "Causes serious eye irritation."}, {"code": "H335", "statement": "May cause respiratory irritation.. Precautionary statement(s)"}, {"code": "P261", "statement": "Avoid breathing dust/ fume/ gas/ mist/ vapours/ spray."}, {"code": "P264", "statement": "Wash skin thoroughly after handling."}, {"code": "P271", "statement": "Use only outdoors or in a well-ventilated area."}, {"code": "P280", "statement": "Wear protective gloves/ eye protection/ face protection."}, {"code": "P302 + P352", "statement": "IF ON SKIN: Wash with plenty of soap and water."}, {"code": "P304 + P340", "statement": "IF INHALED: Remove victim to fresh air and keep at rest in a. position comfortable for breathing."}, {"code": "P305 + P351 + P338", "statement": "IF IN EYES: Rinse cautiously with water for several minutes.. Remove contact lenses, if present and easy to do. Continue. rinsing."}, {"code": "P312", "statement": "Call a POISON CENTER/doctor if you feel unwell."}, {"code": "P321", "statement": "Specific treatment (see supplemental first aid instructions on. this label)."}, {"code": "P332 + P313", "statement": "If skin irritation occurs: Get medical advice/ attention."}, {"code": "P337 + P313", "statement": "If eye irritation persists: Get medical advice/ attention."}, {"code": "P362", "statement": "Take off contaminated clothing and wash before reuse."}, {"code": "P403 + P233", "statement": "Store in a well-ventilated place. Keep container tightly closed."}, {"code": "P405", "statement": "Store locked up."}, {"code": "P501", "statement": "Dispose of contents/ container to an approved waste disposal. plant."}], "canonical_smiles": "CC(C)C(C(=O)NC(C)C(=O)NC(CC(=O)O)C=O)NC(=O)C(CC1=CC=C(C=C1)O)NC(=O)C", "isomeric_smiles": "C[C@@H](C(=O)N[C@@H](CC(=O)O)C=O)NC(=O)[C@H](C(C)C)NC(=O)[C@H](CC1=CC=C(C=C1)O)NC(=O)C"}, {"id": 902, "product_number": "S934577", "CAS_number": "14331-64-7", "product_name": "3,4-DIPHENYL-4H-1,2,4-TRIAZOLE", "product_brand": "Aldrich", "supplier": {"company": ":  Sigma-Aldrich Inc.", "location": "3050 SPRUCE ST. ST. LOUIS MO  63103. UNITED STATES", "tel": ":  +1 314 771-5765", "fax": ":  +1 800 325-5052"}, "formula": ":  C14H11N3", "mw": ":  221.26 g/mol", "ec": "No data available", "appearance": "No data available", "odor": "No data available", "pH": "No data available", "melting_point": "No data available", "flash_point": "No data available", "evaporation_rate": "No data available", "flammability": "No data available", "vapor_pressure": "No data available", "vapor_density": "No data available", "density": "No data available", "water_solubility": "No data available", "partition_coefficient": "No data available", "autoignition": "No data available", "decomposition": "No data available", "viscosity": "No data available", "explosive_properties": "No data available", "oxidizing_properties": "No data available", "bulk_density": "No data available", "particle_size": "No data available", "statements": [{"code": "H302", "statement": "Harmful if swallowed."}, {"code": "H315", "statement": "Causes skin irritation."}, {"code": "H319", "statement": "Causes serious eye irritation."}, {"code": "H335", "statement": "May cause respiratory irritation.. Precautionary statement(s)"}, {"code": "P261", "statement": "Avoid breathing dust/ fume/ gas/ mist/ vapours/ spray."}, {"code": "P264", "statement": "Wash skin thoroughly after handling."}, {"code": "P270", "statement": "Do not eat, drink or smoke when using this product."}, {"code": "P271", "statement": "Use only outdoors or in a well-ventilated area."}, {"code": "P280", "statement": "Wear protective gloves/ eye protection/ face protection."}, {"code": "P301 + P312", "statement": "IF SWALLOWED: Call a POISON CENTER/doctor if you feel. unwell."}, {"code": "P302 + P352", "statement": "IF ON SKIN: Wash with plenty of soap and water."}, {"code": "P304 + P340", "statement": "IF INHALED: Remove victim to fresh air and keep at rest in a. position comfortable for breathing."}, {"code": "P305 + P351 + P338", "statement": "IF IN EYES: Rinse cautiously with water for several minutes.. Remove contact lenses, if present and easy to do. Continue. rinsing."}, {"code": "P312", "statement": "Call a POISON CENTER/doctor if you feel unwell."}, {"code": "P321", "statement": "Specific treatment (see supplemental first aid instructions on. this label)."}, {"code": "P330", "statement": "Rinse mouth."}, {"code": "P332 + P313", "statement": "If skin irritation occurs: Get medical advice/ attention."}, {"code": "P337 + P313", "statement": "If eye irritation persists: Get medical advice/ attention."}, {"code": "P362", "statement": "Take off contaminated clothing and wash before reuse."}, {"code": "P403 + P233", "statement": "Store in a well-ventilated place. Keep container tightly closed."}, {"code": "P405", "statement": "Store locked up."}, {"code": "P501", "statement": "Dispose of contents/ container to an approved waste disposal. plant."}, {"code": "H301", "statement": "Toxic if swallowed.. Precautionary statement(s)"}, {"code": "P264", "statement": "Wash skin thoroughly after handling."}, {"code": "P270", "statement": "Do not eat, drink or smoke when using this product."}, {"code": "P301 + P310 + P330", "statement": "IF SWALLOWED: Immediately call a POISON CENTER/ doctor.. Rinse mouth."}, {"code": "P405", "statement": "Store locked up."}, {"code": "P501", "statement": "Dispose of contents/ container to an approved waste disposal. plant."}, {"code": "H302", "statement": "Harmful if swallowed."}, {"code": "H411", "statement": "Toxic to aquatic life with long lasting effects.. Precautionary statement(s)"}, {"code": "P264", "statement": "Wash skin thoroughly after handling."}, {"code": "P270", "statement": "Do not eat, drink or smoke when using this product."}, {"code": "P273", "statement": "Avoid release to the environment."}, {"code": "P301 + P312 + P330", "statement": "IF SWALLOWED: Call a POISON CENTER/ doctor if you feel. unwell. Rinse mouth."}, {"code": "P391", "statement": "Collect spillage."}, {"code": "P501", "statement": "Dispose of contents/ container to an approved waste disposal. plant."}, {"code": "H315", "statement": "Causes skin irritation."}, {"code": "H319", "statement": "Causes serious eye irritation."}, {"code": "H335", "statement": "May cause respiratory irritation.. Precautionary statement(s)"}, {"code": "P261", "statement": "Avoid breathing dust/ fume/ gas/ mist/ vapours/ spray."}, {"code": "P264", "statement": "Wash skin thoroughly after handling."}, {"code": "P271", "statement": "Use only outdoors or in a well-ventilated area."}, {"code": "P280", "statement": "Wear protective gloves/ eye protection/ face protection."}, {"code": "P302 + P352", "statement": "IF ON SKIN: Wash with plenty of soap and water."}, {"code": "P304 + P340", "statement": "IF INHALED: Remove victim to fresh air and keep at rest in a. position comfortable for breathing."}, {"code": "P305 + P351 + P338", "statement": "IF IN EYES: Rinse cautiously with water for several minutes.. Remove contact lenses, if present and easy to do. Continue. rinsing."}, {"code": "P312", "statement": "Call a POISON CENTER/doctor if you feel unwell."}, {"code": "P321", "statement": "Specific treatment (see supplemental first aid instructions on. this label)."}, {"code": "P332 + P313", "statement": "If skin irritation occurs: Get medical advice/ attention."}, {"code": "P337 + P313", "statement": "If eye irritation persists: Get medical advice/ attention."}, {"code": "P362", "statement": "Take off contaminated clothing and wash before reuse."}, {"code": "P403 + P233", "statement": "Store in a well-ventilated place. Keep container tightly closed."}, {"code": "P405", "statement": "Store locked up."}, {"code": "P501", "statement": "Dispose of contents/ container to an approved waste disposal. plant."}], "canonical_smiles": "C1=CC=C(C=C1)C2=NN=CN2C3=CC=CC=C3", "isomeric_smiles": "C1=CC=C(C=C1)C2=NN=CN2C3=CC=CC=C3"}, {"id": 901, "product_number": "PHB00131", "CAS_number": "143306-65-4", "product_name": "1-Boc-4-hydroxy-3,3-dimethylpiperidine", "product_brand": "Aldrich", "supplier": {"company": ":  Sigma-Aldrich Inc.", "location": "3050 SPRUCE ST. ST. LOUIS MO  63103. UNITED STATES", "tel": ":  +1 314 771-5765", "fax": ":  +1 800 325-5052"}, "formula": "No data available", "mw": "No data available", "ec": "No data available", "appearance": "Form: solid", "odor": "No data available", "pH": "No data available", "melting_point": "No data available. point/freezing point", "flash_point": "()No data available", "evaporation_rate": "No data available", "flammability": "No data available. gas)", "vapor_pressure": "No data available", "vapor_density": "No data available", "density": "No data available. Relative density. No data available", "water_solubility": "No data available", "partition_coefficient": "No data available. n-octanol/water", "autoignition": "No data available. temperature", "decomposition": "No data available. temperature", "viscosity": "No data available", "explosive_properties": "No data available", "oxidizing_properties": "No data available", "bulk_density": "No data available", "particle_size": "No data available", "statements": [{"code": "H302", "statement": "Harmful if swallowed."}, {"code": "H315", "statement": "Causes skin irritation."}, {"code": "H319", "statement": "Causes serious eye irritation."}, {"code": "H335", "statement": "May cause respiratory irritation.. Precautionary statement(s)"}, {"code": "P261", "statement": "Avoid breathing dust/ fume/ gas/ mist/ vapours/ spray."}, {"code": "P264", "statement": "Wash skin thoroughly after handling."}, {"code": "P270", "statement": "Do not eat, drink or smoke when using this product."}, {"code": "P271", "statement": "Use only outdoors or in a well-ventilated area."}, {"code": "P280", "statement": "Wear protective gloves/ eye protection/ face protection."}, {"code": "P301 + P312", "statement": "IF SWALLOWED: Call a POISON CENTER/doctor if you feel. unwell."}, {"code": "P302 + P352", "statement": "IF ON SKIN: Wash with plenty of soap and water."}, {"code": "P304 + P340", "statement": "IF INHALED: Remove victim to fresh air and keep at rest in a. position comfortable for breathing."}, {"code": "P305 + P351 + P338", "statement": "IF IN EYES: Rinse cautiously with water for several minutes.. Remove contact lenses, if present and easy to do. Continue. rinsing."}, {"code": "P312", "statement": "Call a POISON CENTER/doctor if you feel unwell."}, {"code": "P321", "statement": "Specific treatment (see supplemental first aid instructions on. this label)."}, {"code": "P330", "statement": "Rinse mouth."}, {"code": "P332 + P313", "statement": "If skin irritation occurs: Get medical advice/ attention."}, {"code": "P337 + P313", "statement": "If eye irritation persists: Get medical advice/ attention."}, {"code": "P362", "statement": "Take off contaminated clothing and wash before reuse."}, {"code": "P403 + P233", "statement": "Store in a well-ventilated place. Keep container tightly closed."}, {"code": "P405", "statement": "Store locked up."}, {"code": "P501", "statement": "Dispose of contents/ container to an approved waste disposal. plant."}, {"code": "H301", "statement": "Toxic if swallowed.. Precautionary statement(s)"}, {"code": "P264", "statement": "Wash skin thoroughly after handling."}, {"code": "P270", "statement": "Do not eat, drink or smoke when using this product."}, {"code": "P301 + P310 + P330", "statement": "IF SWALLOWED: Immediately call a POISON CENTER/ doctor.. Rinse mouth."}, {"code": "P405", "statement": "Store locked up."}, {"code": "P501", "statement": "Dispose of contents/ container to an approved waste disposal. plant."}, {"code": "H302", "statement": "Harmful if swallowed."}, {"code": "H411", "statement": "Toxic to aquatic life with long lasting effects.. Precautionary statement(s)"}, {"code": "P264", "statement": "Wash skin thoroughly after handling."}, {"code": "P270", "statement": "Do not eat, drink or smoke when using this product."}, {"code": "P273", "statement": "Avoid release to the environment."}, {"code": "P301 + P312 + P330", "statement": "IF SWALLOWED: Call a POISON CENTER/ doctor if you feel. unwell. Rinse mouth."}, {"code": "P391", "statement": "Collect spillage."}, {"code": "P501", "statement": "Dispose of contents/ container to an approved waste disposal. plant."}, {"code": "H315", "statement": "Causes skin irritation."}, {"code": "H319", "statement": "Causes serious eye irritation."}, {"code": "H335", "statement": "May cause respiratory irritation.. Precautionary statement(s)"}, {"code": "P261", "statement": "Avoid breathing dust/ fume/ gas/ mist/ vapours/ spray."}, {"code": "P264", "statement": "Wash skin thoroughly after handling."}, {"code": "P271", "statement": "Use only outdoors or in a well-ventilated area."}, {"code": "P280", "statement": "Wear protective gloves/ eye protection/ face protection."}, {"code": "P302 + P352", "statement": "IF ON SKIN: Wash with plenty of soap and water."}, {"code": "P304 + P340", "statement": "IF INHALED: Remove victim to fresh air and keep at rest in a. position comfortable for breathing."}, {"code": "P305 + P351 + P338", "statement": "IF IN EYES: Rinse cautiously with water for several minutes.. Remove contact lenses, if present and easy to do. Continue. rinsing."}, {"code": "P312", "statement": "Call a POISON CENTER/doctor if you feel unwell."}, {"code": "P321", "statement": "Specific treatment (see supplemental first aid instructions on. this label)."}, {"code": "P332 + P313", "statement": "If skin irritation occurs: Get medical advice/ attention."}, {"code": "P337 + P313", "statement": "If eye irritation persists: Get medical advice/ attention."}, {"code": "P362", "statement": "Take off contaminated clothing and wash before reuse."}, {"code": "P403 + P233", "statement": "Store in a well-ventilated place. Keep container tightly closed."}, {"code": "P405", "statement": "Store locked up."}, {"code": "P501", "statement": "Dispose of contents/ container to an approved waste disposal. plant."}], "canonical_smiles": "CC1(CN(CCC1O)C(=O)OC(C)(C)C)C", "isomeric_smiles": "CC1(CN(CCC1O)C(=O)OC(C)(C)C)C"}, {"id": 906, "product_number": "47772", "CAS_number": "112883-43-9", "product_name": "Fmoc-2-Nal-OH", "product_brand": "Aldrich", "supplier": {"company": ":  Sigma-Aldrich Inc.", "location": "3050 SPRUCE ST. ST. LOUIS MO  63103. UNITED STATES", "tel": ":  +1 314 771-5765", "fax": ":  +1 800 325-5052"}, "formula": ":  C28H23NO4", "mw": ":  437.49 g/mol", "ec": "No data available", "appearance": "Form: powder. Color: beige", "odor": "No data available", "pH": "No data available", "melting_point": "No data available. point/freezing point", "flash_point": "()No data available", "evaporation_rate": "No data available", "flammability": "No data available. gas)", "vapor_pressure": "No data available", "vapor_density": "No data available", "density": "No data available. Relative density. No data available", "water_solubility": "No data available", "partition_coefficient": "No data available. n-octanol/water", "autoignition": "No data available. temperature", "decomposition": "No data available. temperature", "viscosity": "No data available", "explosive_properties": "No data available", "oxidizing_properties": "No data available", "bulk_density": "No data available", "particle_size": "No data available", "statements": [{"code": "H302", "statement": "Harmful if swallowed."}, {"code": "H315", "statement": "Causes skin irritation."}, {"code": "H319", "statement": "Causes serious eye irritation."}, {"code": "H335", "statement": "May cause respiratory irritation.. Precautionary statement(s)"}, {"code": "P261", "statement": "Avoid breathing dust/ fume/ gas/ mist/ vapours/ spray."}, {"code": "P264", "statement": "Wash skin thoroughly after handling."}, {"code": "P270", "statement": "Do not eat, drink or smoke when using this product."}, {"code": "P271", "statement": "Use only outdoors or in a well-ventilated area."}, {"code": "P280", "statement": "Wear protective gloves/ eye protection/ face protection."}, {"code": "P301 + P312", "statement": "IF SWALLOWED: Call a POISON CENTER/doctor if you feel. unwell."}, {"code": "P302 + P352", "statement": "IF ON SKIN: Wash with plenty of soap and water."}, {"code": "P304 + P340", "statement": "IF INHALED: Remove victim to fresh air and keep at rest in a. position comfortable for breathing."}, {"code": "P305 + P351 + P338", "statement": "IF IN EYES: Rinse cautiously with water for several minutes.. Remove contact lenses, if present and easy to do. Continue. rinsing."}, {"code": "P312", "statement": "Call a POISON CENTER/doctor if you feel unwell."}, {"code": "P321", "statement": "Specific treatment (see supplemental first aid instructions on. this label)."}, {"code": "P330", "statement": "Rinse mouth."}, {"code": "P332 + P313", "statement": "If skin irritation occurs: Get medical advice/ attention."}, {"code": "P337 + P313", "statement": "If eye irritation persists: Get medical advice/ attention."}, {"code": "P362", "statement": "Take off contaminated clothing and wash before reuse."}, {"code": "P403 + P233", "statement": "Store in a well-ventilated place. Keep container tightly closed."}, {"code": "P405", "statement": "Store locked up."}, {"code": "P501", "statement": "Dispose of contents/ container to an approved waste disposal. plant."}, {"code": "H301", "statement": "Toxic if swallowed.. Precautionary statement(s)"}, {"code": "P264", "statement": "Wash skin thoroughly after handling."}, {"code": "P270", "statement": "Do not eat, drink or smoke when using this product."}, {"code": "P301 + P310 + P330", "statement": "IF SWALLOWED: Immediately call a POISON CENTER/ doctor.. Rinse mouth."}, {"code": "P405", "statement": "Store locked up."}, {"code": "P501", "statement": "Dispose of contents/ container to an approved waste disposal. plant."}, {"code": "H302", "statement": "Harmful if swallowed."}, {"code": "H411", "statement": "Toxic to aquatic life with long lasting effects.. Precautionary statement(s)"}, {"code": "P264", "statement": "Wash skin thoroughly after handling."}, {"code": "P270", "statement": "Do not eat, drink or smoke when using this product."}, {"code": "P273", "statement": "Avoid release to the environment."}, {"code": "P301 + P312 + P330", "statement": "IF SWALLOWED: Call a POISON CENTER/ doctor if you feel. unwell. Rinse mouth."}, {"code": "P391", "statement": "Collect spillage."}, {"code": "P501", "statement": "Dispose of contents/ container to an approved waste disposal. plant."}, {"code": "H315", "statement": "Causes skin irritation."}, {"code": "H319", "statement": "Causes serious eye irritation."}, {"code": "H335", "statement": "May cause respiratory irritation.. Precautionary statement(s)"}, {"code": "P261", "statement": "Avoid breathing dust/ fume/ gas/ mist/ vapours/ spray."}, {"code": "P264", "statement": "Wash skin thoroughly after handling."}, {"code": "P271", "statement": "Use only outdoors or in a well-ventilated area."}, {"code": "P280", "statement": "Wear protective gloves/ eye protection/ face protection."}, {"code": "P302 + P352", "statement": "IF ON SKIN: Wash with plenty of soap and water."}, {"code": "P304 + P340", "statement": "IF INHALED: Remove victim to fresh air and keep at rest in a. position comfortable for breathing."}, {"code": "P305 + P351 + P338", "statement": "IF IN EYES: Rinse cautiously with water for several minutes.. Remove contact lenses, if present and easy to do. Continue. rinsing."}, {"code": "P312", "statement": "Call a POISON CENTER/doctor if you feel unwell."}, {"code": "P321", "statement": "Specific treatment (see supplemental first aid instructions on. this label)."}, {"code": "P332 + P313", "statement": "If skin irritation occurs: Get medical advice/ attention."}, {"code": "P337 + P313", "statement": "If eye irritation persists: Get medical advice/ attention."}, {"code": "P362", "statement": "Take off contaminated clothing and wash before reuse."}, {"code": "P403 + P233", "statement": "Store in a well-ventilated place. Keep container tightly closed."}, {"code": "P405", "statement": "Store locked up."}, {"code": "P501", "statement": "Dispose of contents/ container to an approved waste disposal. plant."}], "canonical_smiles": "C1=CC=C2C=C(C=CC2=C1)CC(C(=O)O)NC(=O)OCC3C4=CC=CC=C4C5=CC=CC=C35", "isomeric_smiles": "C1=CC=C2C=C(C=CC2=C1)C[C@@H](C(=O)O)NC(=O)OCC3C4=CC=CC=C4C5=CC=CC=C35"}, {"id": 911, "product_number": "04365", "CAS_number": "143314-16-3", "product_name": "1-Ethyl-3-methylimidazolium", "product_brand": "Sigma-Aldrich", "supplier": {"company": ":  Sigma-Aldrich Inc.", "location": "3050 SPRUCE ST. ST. LOUIS MO  63103. UNITED STATES", "tel": ":  +1 314 771-5765", "fax": ":  +1 800 325-5052"}, "formula": ":  C6H11BF4N2", "mw": ":  197.97 g/mol", "ec": "No data available", "appearance": "Form: clear, viscous, liquid. Color: light yellow", "odor": "No data available", "pH": "No data available", "melting_point": "Melting point/range: 15 \u00b0C (59 \u00b0F). point/freezing point", "flash_point": "113 \u00b0C (235 \u00b0F) - closed cup", "evaporation_rate": "No data available", "flammability": "No data available. gas)", "vapor_pressure": "No data available", "vapor_density": "No data available", "density": "1.294 g/mL at 25 \u00b0C (77 \u00b0F). Relative density. No data available", "water_solubility": "No data available", "partition_coefficient": "No data available. n-octanol/water", "autoignition": "No data available. temperature", "decomposition": "No data available. temperature", "viscosity": "No data available", "explosive_properties": "No data available", "oxidizing_properties": "No data available", "bulk_density": "No data available", "particle_size": "No data available", "statements": [{"code": "H302", "statement": "Harmful if swallowed."}, {"code": "H315", "statement": "Causes skin irritation."}, {"code": "H319", "statement": "Causes serious eye irritation."}, {"code": "H335", "statement": "May cause respiratory irritation.. Precautionary statement(s)"}, {"code": "P261", "statement": "Avoid breathing dust/ fume/ gas/ mist/ vapours/ spray."}, {"code": "P264", "statement": "Wash skin thoroughly after handling."}, {"code": "P270", "statement": "Do not eat, drink or smoke when using this product."}, {"code": "P271", "statement": "Use only outdoors or in a well-ventilated area."}, {"code": "P280", "statement": "Wear protective gloves/ eye protection/ face protection."}, {"code": "P301 + P312", "statement": "IF SWALLOWED: Call a POISON CENTER/doctor if you feel. unwell."}, {"code": "P302 + P352", "statement": "IF ON SKIN: Wash with plenty of soap and water."}, {"code": "P304 + P340", "statement": "IF INHALED: Remove victim to fresh air and keep at rest in a. position comfortable for breathing."}, {"code": "P305 + P351 + P338", "statement": "IF IN EYES: Rinse cautiously with water for several minutes.. Remove contact lenses, if present and easy to do. Continue. rinsing."}, {"code": "P312", "statement": "Call a POISON CENTER/doctor if you feel unwell."}, {"code": "P321", "statement": "Specific treatment (see supplemental first aid instructions on. this label)."}, {"code": "P330", "statement": "Rinse mouth."}, {"code": "P332 + P313", "statement": "If skin irritation occurs: Get medical advice/ attention."}, {"code": "P337 + P313", "statement": "If eye irritation persists: Get medical advice/ attention."}, {"code": "P362", "statement": "Take off contaminated clothing and wash before reuse."}, {"code": "P403 + P233", "statement": "Store in a well-ventilated place. Keep container tightly closed."}, {"code": "P405", "statement": "Store locked up."}, {"code": "P501", "statement": "Dispose of contents/ container to an approved waste disposal. plant."}, {"code": "H301", "statement": "Toxic if swallowed.. Precautionary statement(s)"}, {"code": "P264", "statement": "Wash skin thoroughly after handling."}, {"code": "P270", "statement": "Do not eat, drink or smoke when using this product."}, {"code": "P301 + P310 + P330", "statement": "IF SWALLOWED: Immediately call a POISON CENTER/ doctor.. Rinse mouth."}, {"code": "P405", "statement": "Store locked up."}, {"code": "P501", "statement": "Dispose of contents/ container to an approved waste disposal. plant."}, {"code": "H302", "statement": "Harmful if swallowed."}, {"code": "H411", "statement": "Toxic to aquatic life with long lasting effects.. Precautionary statement(s)"}, {"code": "P264", "statement": "Wash skin thoroughly after handling."}, {"code": "P270", "statement": "Do not eat, drink or smoke when using this product."}, {"code": "P273", "statement": "Avoid release to the environment."}, {"code": "P301 + P312 + P330", "statement": "IF SWALLOWED: Call a POISON CENTER/ doctor if you feel. unwell. Rinse mouth."}, {"code": "P391", "statement": "Collect spillage."}, {"code": "P501", "statement": "Dispose of contents/ container to an approved waste disposal. plant."}, {"code": "H315", "statement": "Causes skin irritation."}, {"code": "H319", "statement": "Causes serious eye irritation."}, {"code": "H335", "statement": "May cause respiratory irritation.. Precautionary statement(s)"}, {"code": "P261", "statement": "Avoid breathing dust/ fume/ gas/ mist/ vapours/ spray."}, {"code": "P264", "statement": "Wash skin thoroughly after handling."}, {"code": "P271", "statement": "Use only outdoors or in a well-ventilated area."}, {"code": "P280", "statement": "Wear protective gloves/ eye protection/ face protection."}, {"code": "P302 + P352", "statement": "IF ON SKIN: Wash with plenty of soap and water."}, {"code": "P304 + P340", "statement": "IF INHALED: Remove victim to fresh air and keep at rest in a. position comfortable for breathing."}, {"code": "P305 + P351 + P338", "statement": "IF IN EYES: Rinse cautiously with water for several minutes.. Remove contact lenses, if present and easy to do. Continue. rinsing."}, {"code": "P312", "statement": "Call a POISON CENTER/doctor if you feel unwell."}, {"code": "P321", "statement": "Specific treatment (see supplemental first aid instructions on. this label)."}, {"code": "P332 + P313", "statement": "If skin irritation occurs: Get medical advice/ attention."}, {"code": "P337 + P313", "statement": "If eye irritation persists: Get medical advice/ attention."}, {"code": "P362", "statement": "Take off contaminated clothing and wash before reuse."}, {"code": "P403 + P233", "statement": "Store in a well-ventilated place. Keep container tightly closed."}, {"code": "P405", "statement": "Store locked up."}, {"code": "P501", "statement": "Dispose of contents/ container to an approved waste disposal. plant."}], "canonical_smiles": "CCN1C=C[N+](=C1)C", "isomeric_smiles": "CCN1C=C[N+](=C1)C"}, {"id": 15329, "product_number": "462136", "CAS_number": "99662-46-1", "product_name": "Triphenyl(2-pyridylmethyl)phosphonium", "product_brand": "Aldrich", "supplier": {"company": ":  Sigma-Aldrich Inc.", "location": "3050 SPRUCE ST. ST. LOUIS MO  63103. UNITED STATES", "tel": ":  +1 314 771-5765", "fax": ":  +1 800 325-5052"}, "formula": ":  C24H21ClNP \u00b7 HCl", "mw": ":  426.32 g/mol", "ec": "No data available", "appearance": "Form: solid. Colour: white", "odor": "No data available", "pH": "No data available", "melting_point": "Melting point/range: 249 - 254 \u00b0C (480 - 489 \u00b0F) - lit.. point/freezing point", "flash_point": "()No data available", "evaporation_rate": "No data available", "flammability": "No data available. gas)", "vapor_pressure": "No data available", "vapor_density": "No data available", "density": "No data available", "water_solubility": "No data available", "partition_coefficient": "No data available. n-octanol/water", "autoignition": "No data available", "decomposition": "No data available. temperature", "viscosity": "No data available", "explosive_properties": "No data available", "oxidizing_properties": "No data available", "bulk_density": "No data available", "particle_size": "No data available", "statements": [{"code": "H302", "statement": "Harmful if swallowed."}, {"code": "H315", "statement": "Causes skin irritation."}, {"code": "H319", "statement": "Causes serious eye irritation."}, {"code": "H335", "statement": "May cause respiratory irritation.. Precautionary statement(s)"}, {"code": "P261", "statement": "Avoid breathing dust/ fume/ gas/ mist/ vapours/ spray."}, {"code": "P264", "statement": "Wash skin thoroughly after handling."}, {"code": "P270", "statement": "Do not eat, drink or smoke when using this product."}, {"code": "P271", "statement": "Use only outdoors or in a well-ventilated area."}, {"code": "P280", "statement": "Wear protective gloves/ eye protection/ face protection."}, {"code": "P301 + P312", "statement": "IF SWALLOWED: Call a POISON CENTER/doctor if you feel. unwell."}, {"code": "P302 + P352", "statement": "IF ON SKIN: Wash with plenty of soap and water."}, {"code": "P304 + P340", "statement": "IF INHALED: Remove victim to fresh air and keep at rest in a. position comfortable for breathing."}, {"code": "P305 + P351 + P338", "statement": "IF IN EYES: Rinse cautiously with water for several minutes.. Remove contact lenses, if present and easy to do. Continue. rinsing."}, {"code": "P312", "statement": "Call a POISON CENTER/doctor if you feel unwell."}, {"code": "P321", "statement": "Specific treatment (see supplemental first aid instructions on. this label)."}, {"code": "P330", "statement": "Rinse mouth."}, {"code": "P332 + P313", "statement": "If skin irritation occurs: Get medical advice/ attention."}, {"code": "P337 + P313", "statement": "If eye irritation persists: Get medical advice/ attention."}, {"code": "P362", "statement": "Take off contaminated clothing and wash before reuse."}, {"code": "P403 + P233", "statement": "Store in a well-ventilated place. Keep container tightly closed."}, {"code": "P405", "statement": "Store locked up."}, {"code": "P501", "statement": "Dispose of contents/ container to an approved waste disposal. plant."}, {"code": "H301", "statement": "Toxic if swallowed.. Precautionary statement(s)"}, {"code": "P264", "statement": "Wash skin thoroughly after handling."}, {"code": "P270", "statement": "Do not eat, drink or smoke when using this product."}, {"code": "P301 + P310 + P330", "statement": "IF SWALLOWED: Immediately call a POISON CENTER/ doctor.. Rinse mouth."}, {"code": "P405", "statement": "Store locked up."}, {"code": "P501", "statement": "Dispose of contents/ container to an approved waste disposal. plant."}, {"code": "H302", "statement": "Harmful if swallowed."}, {"code": "H411", "statement": "Toxic to aquatic life with long lasting effects.. Precautionary statement(s)"}, {"code": "P264", "statement": "Wash skin thoroughly after handling."}, {"code": "P270", "statement": "Do not eat, drink or smoke when using this product."}, {"code": "P273", "statement": "Avoid release to the environment."}, {"code": "P301 + P312 + P330", "statement": "IF SWALLOWED: Call a POISON CENTER/ doctor if you feel. unwell. Rinse mouth."}, {"code": "P391", "statement": "Collect spillage."}, {"code": "P501", "statement": "Dispose of contents/ container to an approved waste disposal. plant."}, {"code": "H315", "statement": "Causes skin irritation."}, {"code": "H319", "statement": "Causes serious eye irritation."}, {"code": "H335", "statement": "May cause respiratory irritation.. Precautionary statement(s)"}, {"code": "P261", "statement": "Avoid breathing dust/ fume/ gas/ mist/ vapours/ spray."}, {"code": "P264", "statement": "Wash skin thoroughly after handling."}, {"code": "P271", "statement": "Use only outdoors or in a well-ventilated area."}, {"code": "P280", "statement": "Wear protective gloves/ eye protection/ face protection."}, {"code": "P302 + P352", "statement": "IF ON SKIN: Wash with plenty of soap and water."}, {"code": "P304 + P340", "statement": "IF INHALED: Remove victim to fresh air and keep at rest in a. position comfortable for breathing."}, {"code": "P305 + P351 + P338", "statement": "IF IN EYES: Rinse cautiously with water for several minutes.. Remove contact lenses, if present and easy to do. Continue. rinsing."}, {"code": "P312", "statement": "Call a POISON CENTER/doctor if you feel unwell."}, {"code": "P321", "statement": "Specific treatment (see supplemental first aid instructions on. this label)."}, {"code": "P332 + P313", "statement": "If skin irritation occurs: Get medical advice/ attention."}, {"code": "P337 + P313", "statement": "If eye irritation persists: Get medical advice/ attention."}, {"code": "P362", "statement": "Take off contaminated clothing and wash before reuse."}, {"code": "P403 + P233", "statement": "Store in a well-ventilated place. Keep container tightly closed."}, {"code": "P405", "statement": "Store locked up."}, {"code": "P501", "statement": "Dispose of contents/ container to an approved waste disposal. plant."}], "canonical_smiles": "No data available", "isomeric_smiles": "No data available"}]