[{"id": 673, "product_number": "C105406", "CAS_number": "1122-82-3", "product_name": "Cyclohexyl isothiocyanate", "product_brand": "Aldrich", "supplier": {"company": ":  Sigma-Aldrich Inc.", "location": "3050 SPRUCE ST. ST. LOUIS MO  63103. UNITED STATES", "tel": ":  +1 314 771-5765", "fax": ":  +1 800 325-5052"}, "formula": ":  C7H11NS", "mw": ":  141.23 g/mol", "ec": ":  214-361-9. TabulaTable(extraction_method=stream, page_number=2, top=540.0, bottom=622.0, left=80.0, right=558.0, width=478.0, height=82.0, data=\n+-------------------------+------------------------------------------------------------------------------+-------------+\n|Component                |Classification                                                                |Concentration|\n+-------------------------+------------------------------------------------------------------------------+-------------+\n|Cyclohexyl isothiocyanate|                                                                              |             |\n+-------------------------+------------------------------------------------------------------------------+-------------+\n|Cyclohexyl isothiocyanate|Skin Corr. 1B; Eye Dam. 1; Resp. Sens. 1; Skin Sens. 1; H314, H318, H334, H317|<= 100 %     |\n+-------------------------+------------------------------------------------------------------------------+-------------+\n, additional_ops=['strip_text', 'merge_rows', 'pull_down_to_empty'])", "appearance": "Form: clear, liquid. Color: light yellow", "odor": "No data available", "pH": "No data available", "melting_point": "No data available. point/freezing point", "flash_point": "95 \u00b0C (203 \u00b0F) - closed cup", "evaporation_rate": "No data available", "flammability": "No data available. gas)", "vapor_pressure": "No data available", "vapor_density": "No data available", "density": "0.996 g/cm3 at 25 \u00b0C (77 \u00b0F) - lit.. Relative density. No data available", "water_solubility": "No data available", "partition_coefficient": "No data available. n-octanol/water", "autoignition": "No data available. temperature", "decomposition": "No data available. temperature", "viscosity": "No data available", "explosive_properties": "No data available", "oxidizing_properties": "No data available", "bulk_density": "No data available", "particle_size": "No data available", "statements": [{"code": "H314", "statement": "Causes severe skin burns and eye damage."}, {"code": "H317", "statement": "May cause an allergic skin reaction."}, {"code": "H334", "statement": "May cause allergy or asthma symptoms or breathing difficulties. if inhaled.. Precautionary statement(s)"}, {"code": "P261", "statement": "Avoid breathing mist or vapors."}, {"code": "P264", "statement": "Wash skin thoroughly after handling."}, {"code": "P272", "statement": "Contaminated work clothing must not be allowed out of the. workplace."}, {"code": "P280", "statement": "Wear protective gloves/ protective clothing/ eye protection/ face. protection."}, {"code": "P285", "statement": "In case of inadequate ventilation wear respiratory protection."}, {"code": "P301 + P330 + P331", "statement": "IF SWALLOWED: Rinse mouth. Do NOT induce vomiting."}, {"code": "P303 + P361 + P353", "statement": "IF ON SKIN (or hair): Take off immediately all contaminated. clothing. Rinse skin with water/ shower."}, {"code": "P304 + P340 + P310", "statement": "IF INHALED: Remove person to fresh air and keep comfortable. for breathing. Immediately call a POISON CENTER/ doctor."}, {"code": "P305 + P351 + P338 +", "statement": "IF IN EYES: Rinse cautiously with water for several minutes."}, {"code": "P310", "statement": "Remove contact lenses, if present and easy to do. Continue. rinsing. Immediately call a POISON CENTER/ doctor."}, {"code": "P333 + P313", "statement": "If skin irritation or rash occurs: Get medical advice/ attention."}, {"code": "P342 + P311", "statement": "If experiencing respiratory symptoms: Call a POISON CENTER/. doctor."}, {"code": "P363", "statement": "Wash contaminated clothing before reuse."}, {"code": "P405", "statement": "Store locked up."}, {"code": "P501", "statement": "Dispose of contents/ container to an approved waste disposal. plant."}, {"code": "H315", "statement": "Causes skin irritation."}, {"code": "H319", "statement": "Causes serious eye irritation."}, {"code": "H335", "statement": "May cause respiratory irritation.. Precautionary statement(s)"}, {"code": "P261", "statement": "Avoid breathing dust/ fume/ gas/ mist/ vapours/ spray."}, {"code": "P264", "statement": "Wash skin thoroughly after handling."}, {"code": "P271", "statement": "Use only outdoors or in a well-ventilated area."}, {"code": "P280", "statement": "Wear protective gloves/ eye protection/ face protection."}, {"code": "P302 + P352", "statement": "IF ON SKIN: Wash with plenty of soap and water."}, {"code": "P304 + P340", "statement": "IF INHALED: Remove victim to fresh air and keep at rest in a. position comfortable for breathing."}, {"code": "P305 + P351 + P338", "statement": "IF IN EYES: Rinse cautiously with water for several minutes.. Remove contact lenses, if present and easy to do. Continue. rinsing."}, {"code": "P312", "statement": "Call a POISON CENTER/doctor if you feel unwell."}, {"code": "P321", "statement": "Specific treatment (see supplemental first aid instructions on. this label)."}, {"code": "P332 + P313", "statement": "If skin irritation occurs: Get medical advice/ attention."}, {"code": "P337 + P313", "statement": "If eye irritation persists: Get medical advice/ attention."}, {"code": "P362", "statement": "Take off contaminated clothing and wash before reuse."}, {"code": "P403 + P233", "statement": "Store in a well-ventilated place. Keep container tightly closed."}, {"code": "P405", "statement": "Store locked up."}, {"code": "P501", "statement": "Dispose of contents/ container to an approved waste disposal. plant."}], "canonical_smiles": "C1CCC(CC1)N=C=S", "isomeric_smiles": "C1CCC(CC1)N=C=S"}, {"id": 36891, "product_number": "BP403", "CAS_number": "55-98-1", "product_name": "Busulfan", "product_brand": "Sigma-Aldrich", "supplier": {"company": ":  Sigma-Aldrich Inc.", "location": "3050 SPRUCE ST. ST. LOUIS MO  63103. UNITED STATES", "tel": ":  +1 314 771-5765", "fax": ":  +1 800 325-5052"}, "formula": ":  CH3SO2O(CH2)4OSO2CH3", "mw": ":  246.3 g/mol", "ec": "No data available", "appearance": "Form: crystalline. Color: beige", "odor": "No data available", "pH": "No data available", "melting_point": "Melting point/range: 114 - 118 \u00b0C (237 - 244 \u00b0F). point/freezing point", "flash_point": "()No data available", "evaporation_rate": "No data available", "flammability": "No data available. gas)", "vapor_pressure": "No data available", "vapor_density": "No data available", "density": "No data available", "water_solubility": "No data available", "partition_coefficient": "No data available", "autoignition": "No data available", "decomposition": "No data available", "viscosity": "No data available", "explosive_properties": "No data available", "oxidizing_properties": "No data available", "bulk_density": "No data available", "particle_size": "No data available", "statements": [{"code": "H314", "statement": "Causes severe skin burns and eye damage."}, {"code": "H317", "statement": "May cause an allergic skin reaction."}, {"code": "H334", "statement": "May cause allergy or asthma symptoms or breathing difficulties. if inhaled.. Precautionary statement(s)"}, {"code": "P261", "statement": "Avoid breathing mist or vapors."}, {"code": "P264", "statement": "Wash skin thoroughly after handling."}, {"code": "P272", "statement": "Contaminated work clothing must not be allowed out of the. workplace."}, {"code": "P280", "statement": "Wear protective gloves/ protective clothing/ eye protection/ face. protection."}, {"code": "P285", "statement": "In case of inadequate ventilation wear respiratory protection."}, {"code": "P301 + P330 + P331", "statement": "IF SWALLOWED: Rinse mouth. Do NOT induce vomiting."}, {"code": "P303 + P361 + P353", "statement": "IF ON SKIN (or hair): Take off immediately all contaminated. clothing. Rinse skin with water/ shower."}, {"code": "P304 + P340 + P310", "statement": "IF INHALED: Remove person to fresh air and keep comfortable. for breathing. Immediately call a POISON CENTER/ doctor."}, {"code": "P305 + P351 + P338 +", "statement": "IF IN EYES: Rinse cautiously with water for several minutes."}, {"code": "P310", "statement": "Remove contact lenses, if present and easy to do. Continue. rinsing. Immediately call a POISON CENTER/ doctor."}, {"code": "P333 + P313", "statement": "If skin irritation or rash occurs: Get medical advice/ attention."}, {"code": "P342 + P311", "statement": "If experiencing respiratory symptoms: Call a POISON CENTER/. doctor."}, {"code": "P363", "statement": "Wash contaminated clothing before reuse."}, {"code": "P405", "statement": "Store locked up."}, {"code": "P501", "statement": "Dispose of contents/ container to an approved waste disposal. plant."}, {"code": "H315", "statement": "Causes skin irritation."}, {"code": "H319", "statement": "Causes serious eye irritation."}, {"code": "H335", "statement": "May cause respiratory irritation.. Precautionary statement(s)"}, {"code": "P261", "statement": "Avoid breathing dust/ fume/ gas/ mist/ vapours/ spray."}, {"code": "P264", "statement": "Wash skin thoroughly after handling."}, {"code": "P271", "statement": "Use only outdoors or in a well-ventilated area."}, {"code": "P280", "statement": "Wear protective gloves/ eye protection/ face protection."}, {"code": "P302 + P352", "statement": "IF ON SKIN: Wash with plenty of soap and water."}, {"code": "P304 + P340", "statement": "IF INHALED: Remove victim to fresh air and keep at rest in a. position comfortable for breathing."}, {"code": "P305 + P351 + P338", "statement": "IF IN EYES: Rinse cautiously with water for several minutes.. Remove contact lenses, if present and easy to do. Continue. rinsing."}, {"code": "P312", "statement": "Call a POISON CENTER/doctor if you feel unwell."}, {"code": "P321", "statement": "Specific treatment (see supplemental first aid instructions on. this label)."}, {"code": "P332 + P313", "statement": "If skin irritation occurs: Get medical advice/ attention."}, {"code": "P337 + P313", "statement": "If eye irritation persists: Get medical advice/ attention."}, {"code": "P362", "statement": "Take off contaminated clothing and wash before reuse."}, {"code": "P403 + P233", "statement": "Store in a well-ventilated place. Keep container tightly closed."}, {"code": "P405", "statement": "Store locked up."}, {"code": "P501", "statement": "Dispose of contents/ container to an approved waste disposal. plant."}], "canonical_smiles": "CS(=O)(=O)OCCCCOS(=O)(=O)C", "isomeric_smiles": "CS(=O)(=O)OCCCCOS(=O)(=O)C"}, {"id": 647, "product_number": "D65003", "CAS_number": "1122-17-4", "product_name": "2,3-Dichloromaleic anhydride", "product_brand": "Aldrich", "supplier": {"company": ":  Sigma-Aldrich Inc.", "location": "3050 SPRUCE ST. ST. LOUIS MO  63103. UNITED STATES", "tel": ":  +1 314 771-5765", "fax": ":  +1 800 325-5052"}, "formula": ":  C4Cl2O3", "mw": ":  166.95 g/mol", "ec": ":  214-343-0. No components need to be disclosed according to the applicable regulations.", "appearance": "Form: crystalline. Color: beige", "odor": "No data available", "pH": "No data available", "melting_point": "Melting point/range: 120 \u00b0C (248 \u00b0F). point/freezing point", "flash_point": "()No data available", "evaporation_rate": "No data available", "flammability": "No data available. gas)", "vapor_pressure": "No data available", "vapor_density": "No data available", "density": "No data available. Relative density. No data available", "water_solubility": "No data available", "partition_coefficient": "No data available. n-octanol/water", "autoignition": "No data available. temperature", "decomposition": "No data available. temperature", "viscosity": "No data available", "explosive_properties": "No data available", "oxidizing_properties": "No data available", "bulk_density": "No data available", "particle_size": "No data available", "statements": [{"code": "H314", "statement": "Causes severe skin burns and eye damage."}, {"code": "H317", "statement": "May cause an allergic skin reaction."}, {"code": "H334", "statement": "May cause allergy or asthma symptoms or breathing difficulties. if inhaled.. Precautionary statement(s)"}, {"code": "P261", "statement": "Avoid breathing mist or vapors."}, {"code": "P264", "statement": "Wash skin thoroughly after handling."}, {"code": "P272", "statement": "Contaminated work clothing must not be allowed out of the. workplace."}, {"code": "P280", "statement": "Wear protective gloves/ protective clothing/ eye protection/ face. protection."}, {"code": "P285", "statement": "In case of inadequate ventilation wear respiratory protection."}, {"code": "P301 + P330 + P331", "statement": "IF SWALLOWED: Rinse mouth. Do NOT induce vomiting."}, {"code": "P303 + P361 + P353", "statement": "IF ON SKIN (or hair): Take off immediately all contaminated. clothing. Rinse skin with water/ shower."}, {"code": "P304 + P340 + P310", "statement": "IF INHALED: Remove person to fresh air and keep comfortable. for breathing. Immediately call a POISON CENTER/ doctor."}, {"code": "P305 + P351 + P338 +", "statement": "IF IN EYES: Rinse cautiously with water for several minutes."}, {"code": "P310", "statement": "Remove contact lenses, if present and easy to do. Continue. rinsing. Immediately call a POISON CENTER/ doctor."}, {"code": "P333 + P313", "statement": "If skin irritation or rash occurs: Get medical advice/ attention."}, {"code": "P342 + P311", "statement": "If experiencing respiratory symptoms: Call a POISON CENTER/. doctor."}, {"code": "P363", "statement": "Wash contaminated clothing before reuse."}, {"code": "P405", "statement": "Store locked up."}, {"code": "P501", "statement": "Dispose of contents/ container to an approved waste disposal. plant."}, {"code": "H315", "statement": "Causes skin irritation."}, {"code": "H319", "statement": "Causes serious eye irritation."}, {"code": "H335", "statement": "May cause respiratory irritation.. Precautionary statement(s)"}, {"code": "P261", "statement": "Avoid breathing dust/ fume/ gas/ mist/ vapours/ spray."}, {"code": "P264", "statement": "Wash skin thoroughly after handling."}, {"code": "P271", "statement": "Use only outdoors or in a well-ventilated area."}, {"code": "P280", "statement": "Wear protective gloves/ eye protection/ face protection."}, {"code": "P302 + P352", "statement": "IF ON SKIN: Wash with plenty of soap and water."}, {"code": "P304 + P340", "statement": "IF INHALED: Remove victim to fresh air and keep at rest in a. position comfortable for breathing."}, {"code": "P305 + P351 + P338", "statement": "IF IN EYES: Rinse cautiously with water for several minutes.. Remove contact lenses, if present and easy to do. Continue. rinsing."}, {"code": "P312", "statement": "Call a POISON CENTER/doctor if you feel unwell."}, {"code": "P321", "statement": "Specific treatment (see supplemental first aid instructions on. this label)."}, {"code": "P332 + P313", "statement": "If skin irritation occurs: Get medical advice/ attention."}, {"code": "P337 + P313", "statement": "If eye irritation persists: Get medical advice/ attention."}, {"code": "P362", "statement": "Take off contaminated clothing and wash before reuse."}, {"code": "P403 + P233", "statement": "Store in a well-ventilated place. Keep container tightly closed."}, {"code": "P405", "statement": "Store locked up."}, {"code": "P501", "statement": "Dispose of contents/ container to an approved waste disposal. plant."}], "canonical_smiles": "C1(=C(C(=O)OC1=O)Cl)Cl", "isomeric_smiles": "C1(=C(C(=O)OC1=O)Cl)Cl"}, {"id": 728, "product_number": "454265", "CAS_number": "2142-73-6", "product_name": "2\u2032,5\u2032-Dimethylacetophenone", "product_brand": "Aldrich", "supplier": {"company": ":  Sigma-Aldrich Inc.", "location": "3050 SPRUCE ST. ST. LOUIS MO  63103. UNITED STATES", "tel": ":  +1 314 771-5765", "fax": ":  +1 800 325-5052"}, "formula": ":  C10H12O", "mw": ":  148.20 g/mol", "ec": ":  218-399-7. No components need to be disclosed according to the applicable regulations.", "appearance": "Form: clear, liquid. Color: light yellow", "odor": "No data available", "pH": "No data available", "melting_point": "No data available. point/freezing point", "flash_point": "96 \u00b0C (205 \u00b0F) - closed cup", "evaporation_rate": "No data available", "flammability": "No data available. gas)", "vapor_pressure": "No data available", "vapor_density": "No data available", "density": "0.988 g/mL at 25 \u00b0C (77 \u00b0F). Relative density. No data available", "water_solubility": "No data available", "partition_coefficient": "No data available. n-octanol/water", "autoignition": "No data available. temperature", "decomposition": "No data available. temperature", "viscosity": "No data available", "explosive_properties": "No data available", "oxidizing_properties": "No data available", "bulk_density": "No data available", "particle_size": "No data available", "statements": [{"code": "H314", "statement": "Causes severe skin burns and eye damage."}, {"code": "H317", "statement": "May cause an allergic skin reaction."}, {"code": "H334", "statement": "May cause allergy or asthma symptoms or breathing difficulties. if inhaled.. Precautionary statement(s)"}, {"code": "P261", "statement": "Avoid breathing mist or vapors."}, {"code": "P264", "statement": "Wash skin thoroughly after handling."}, {"code": "P272", "statement": "Contaminated work clothing must not be allowed out of the. workplace."}, {"code": "P280", "statement": "Wear protective gloves/ protective clothing/ eye protection/ face. protection."}, {"code": "P285", "statement": "In case of inadequate ventilation wear respiratory protection."}, {"code": "P301 + P330 + P331", "statement": "IF SWALLOWED: Rinse mouth. Do NOT induce vomiting."}, {"code": "P303 + P361 + P353", "statement": "IF ON SKIN (or hair): Take off immediately all contaminated. clothing. Rinse skin with water/ shower."}, {"code": "P304 + P340 + P310", "statement": "IF INHALED: Remove person to fresh air and keep comfortable. for breathing. Immediately call a POISON CENTER/ doctor."}, {"code": "P305 + P351 + P338 +", "statement": "IF IN EYES: Rinse cautiously with water for several minutes."}, {"code": "P310", "statement": "Remove contact lenses, if present and easy to do. Continue. rinsing. Immediately call a POISON CENTER/ doctor."}, {"code": "P333 + P313", "statement": "If skin irritation or rash occurs: Get medical advice/ attention."}, {"code": "P342 + P311", "statement": "If experiencing respiratory symptoms: Call a POISON CENTER/. doctor."}, {"code": "P363", "statement": "Wash contaminated clothing before reuse."}, {"code": "P405", "statement": "Store locked up."}, {"code": "P501", "statement": "Dispose of contents/ container to an approved waste disposal. plant."}, {"code": "H315", "statement": "Causes skin irritation."}, {"code": "H319", "statement": "Causes serious eye irritation."}, {"code": "H335", "statement": "May cause respiratory irritation.. Precautionary statement(s)"}, {"code": "P261", "statement": "Avoid breathing dust/ fume/ gas/ mist/ vapours/ spray."}, {"code": "P264", "statement": "Wash skin thoroughly after handling."}, {"code": "P271", "statement": "Use only outdoors or in a well-ventilated area."}, {"code": "P280", "statement": "Wear protective gloves/ eye protection/ face protection."}, {"code": "P302 + P352", "statement": "IF ON SKIN: Wash with plenty of soap and water."}, {"code": "P304 + P340", "statement": "IF INHALED: Remove victim to fresh air and keep at rest in a. position comfortable for breathing."}, {"code": "P305 + P351 + P338", "statement": "IF IN EYES: Rinse cautiously with water for several minutes.. Remove contact lenses, if present and easy to do. Continue. rinsing."}, {"code": "P312", "statement": "Call a POISON CENTER/doctor if you feel unwell."}, {"code": "P321", "statement": "Specific treatment (see supplemental first aid instructions on. this label)."}, {"code": "P332 + P313", "statement": "If skin irritation occurs: Get medical advice/ attention."}, {"code": "P337 + P313", "statement": "If eye irritation persists: Get medical advice/ attention."}, {"code": "P362", "statement": "Take off contaminated clothing and wash before reuse."}, {"code": "P403 + P233", "statement": "Store in a well-ventilated place. Keep container tightly closed."}, {"code": "P405", "statement": "Store locked up."}, {"code": "P501", "statement": "Dispose of contents/ container to an approved waste disposal. plant."}], "canonical_smiles": "No data available", "isomeric_smiles": "No data available"}, {"id": 4017, "product_number": "1171900", "CAS_number": "57041-67-5", "product_name": "Desflurane", "product_brand": "US Pharmacopeia", "supplier": {"company": ":  Sigma-Aldrich Inc.", "location": "3050 SPRUCE ST. ST. LOUIS MO  63103. UNITED STATES", "tel": ":  +1 314 771-5765", "fax": ":  +1 800 325-5052"}, "formula": "No data available", "mw": "No data available", "ec": "No data available", "appearance": "No data available", "odor": "No data available", "pH": "No data available", "melting_point": "No data available", "flash_point": "No data available", "evaporation_rate": "No data available", "flammability": "No data available", "vapor_pressure": "No data available", "vapor_density": "No data available", "density": "No data available", "water_solubility": "No data available", "partition_coefficient": "No data available", "autoignition": "No data available", "decomposition": "No data available", "viscosity": "No data available", "explosive_properties": "No data available", "oxidizing_properties": "No data available", "bulk_density": "No data available", "particle_size": "No data available", "statements": [{"code": "H314", "statement": "Causes severe skin burns and eye damage."}, {"code": "H317", "statement": "May cause an allergic skin reaction."}, {"code": "H334", "statement": "May cause allergy or asthma symptoms or breathing difficulties. if inhaled.. Precautionary statement(s)"}, {"code": "P261", "statement": "Avoid breathing mist or vapors."}, {"code": "P264", "statement": "Wash skin thoroughly after handling."}, {"code": "P272", "statement": "Contaminated work clothing must not be allowed out of the. workplace."}, {"code": "P280", "statement": "Wear protective gloves/ protective clothing/ eye protection/ face. protection."}, {"code": "P285", "statement": "In case of inadequate ventilation wear respiratory protection."}, {"code": "P301 + P330 + P331", "statement": "IF SWALLOWED: Rinse mouth. Do NOT induce vomiting."}, {"code": "P303 + P361 + P353", "statement": "IF ON SKIN (or hair): Take off immediately all contaminated. clothing. Rinse skin with water/ shower."}, {"code": "P304 + P340 + P310", "statement": "IF INHALED: Remove person to fresh air and keep comfortable. for breathing. Immediately call a POISON CENTER/ doctor."}, {"code": "P305 + P351 + P338 +", "statement": "IF IN EYES: Rinse cautiously with water for several minutes."}, {"code": "P310", "statement": "Remove contact lenses, if present and easy to do. Continue. rinsing. Immediately call a POISON CENTER/ doctor."}, {"code": "P333 + P313", "statement": "If skin irritation or rash occurs: Get medical advice/ attention."}, {"code": "P342 + P311", "statement": "If experiencing respiratory symptoms: Call a POISON CENTER/. doctor."}, {"code": "P363", "statement": "Wash contaminated clothing before reuse."}, {"code": "P405", "statement": "Store locked up."}, {"code": "P501", "statement": "Dispose of contents/ container to an approved waste disposal. plant."}, {"code": "H315", "statement": "Causes skin irritation."}, {"code": "H319", "statement": "Causes serious eye irritation."}, {"code": "H335", "statement": "May cause respiratory irritation.. Precautionary statement(s)"}, {"code": "P261", "statement": "Avoid breathing dust/ fume/ gas/ mist/ vapours/ spray."}, {"code": "P264", "statement": "Wash skin thoroughly after handling."}, {"code": "P271", "statement": "Use only outdoors or in a well-ventilated area."}, {"code": "P280", "statement": "Wear protective gloves/ eye protection/ face protection."}, {"code": "P302 + P352", "statement": "IF ON SKIN: Wash with plenty of soap and water."}, {"code": "P304 + P340", "statement": "IF INHALED: Remove victim to fresh air and keep at rest in a. position comfortable for breathing."}, {"code": "P305 + P351 + P338", "statement": "IF IN EYES: Rinse cautiously with water for several minutes.. Remove contact lenses, if present and easy to do. Continue. rinsing."}, {"code": "P312", "statement": "Call a POISON CENTER/doctor if you feel unwell."}, {"code": "P321", "statement": "Specific treatment (see supplemental first aid instructions on. this label)."}, {"code": "P332 + P313", "statement": "If skin irritation occurs: Get medical advice/ attention."}, {"code": "P337 + P313", "statement": "If eye irritation persists: Get medical advice/ attention."}, {"code": "P362", "statement": "Take off contaminated clothing and wash before reuse."}, {"code": "P403 + P233", "statement": "Store in a well-ventilated place. Keep container tightly closed."}, {"code": "P405", "statement": "Store locked up."}, {"code": "P501", "statement": "Dispose of contents/ container to an approved waste disposal. plant."}], "canonical_smiles": "C(C(F)(F)F)(OC(F)F)F", "isomeric_smiles": "C(C(F)(F)F)(OC(F)F)F"}, {"id": 738, "product_number": "457760", "CAS_number": "14231-57-3", "product_name": "(R)-(\u2212)-N-Benzyl-2-phenylglycinol", "product_brand": "Aldrich", "supplier": {"company": ":  Sigma-Aldrich Inc.", "location": "3050 SPRUCE ST. ST. LOUIS MO  63103. UNITED STATES", "tel": ":  +1 314 771-5765", "fax": ":  +1 800 325-5052"}, "formula": ":  C15H17NO", "mw": ":  227.30 g/mol", "ec": "No data available", "appearance": "Form: powder. Colour: white", "odor": "No data available", "pH": "No data available", "melting_point": "No data available. point/freezing point", "flash_point": "()No data available", "evaporation_rate": "No data available", "flammability": "No data available. gas)", "vapor_pressure": "No data available", "vapor_density": "No data available", "density": "No data available", "water_solubility": "No data available", "partition_coefficient": "No data available. n-octanol/water", "autoignition": "No data available", "decomposition": "No data available. temperature", "viscosity": "No data available", "explosive_properties": "No data available", "oxidizing_properties": "No data available", "bulk_density": "No data available", "particle_size": "No data available", "statements": [{"code": "H314", "statement": "Causes severe skin burns and eye damage."}, {"code": "H317", "statement": "May cause an allergic skin reaction."}, {"code": "H334", "statement": "May cause allergy or asthma symptoms or breathing difficulties. if inhaled.. Precautionary statement(s)"}, {"code": "P261", "statement": "Avoid breathing mist or vapors."}, {"code": "P264", "statement": "Wash skin thoroughly after handling."}, {"code": "P272", "statement": "Contaminated work clothing must not be allowed out of the. workplace."}, {"code": "P280", "statement": "Wear protective gloves/ protective clothing/ eye protection/ face. protection."}, {"code": "P285", "statement": "In case of inadequate ventilation wear respiratory protection."}, {"code": "P301 + P330 + P331", "statement": "IF SWALLOWED: Rinse mouth. Do NOT induce vomiting."}, {"code": "P303 + P361 + P353", "statement": "IF ON SKIN (or hair): Take off immediately all contaminated. clothing. Rinse skin with water/ shower."}, {"code": "P304 + P340 + P310", "statement": "IF INHALED: Remove person to fresh air and keep comfortable. for breathing. Immediately call a POISON CENTER/ doctor."}, {"code": "P305 + P351 + P338 +", "statement": "IF IN EYES: Rinse cautiously with water for several minutes."}, {"code": "P310", "statement": "Remove contact lenses, if present and easy to do. Continue. rinsing. Immediately call a POISON CENTER/ doctor."}, {"code": "P333 + P313", "statement": "If skin irritation or rash occurs: Get medical advice/ attention."}, {"code": "P342 + P311", "statement": "If experiencing respiratory symptoms: Call a POISON CENTER/. doctor."}, {"code": "P363", "statement": "Wash contaminated clothing before reuse."}, {"code": "P405", "statement": "Store locked up."}, {"code": "P501", "statement": "Dispose of contents/ container to an approved waste disposal. plant."}, {"code": "H315", "statement": "Causes skin irritation."}, {"code": "H319", "statement": "Causes serious eye irritation."}, {"code": "H335", "statement": "May cause respiratory irritation.. Precautionary statement(s)"}, {"code": "P261", "statement": "Avoid breathing dust/ fume/ gas/ mist/ vapours/ spray."}, {"code": "P264", "statement": "Wash skin thoroughly after handling."}, {"code": "P271", "statement": "Use only outdoors or in a well-ventilated area."}, {"code": "P280", "statement": "Wear protective gloves/ eye protection/ face protection."}, {"code": "P302 + P352", "statement": "IF ON SKIN: Wash with plenty of soap and water."}, {"code": "P304 + P340", "statement": "IF INHALED: Remove victim to fresh air and keep at rest in a. position comfortable for breathing."}, {"code": "P305 + P351 + P338", "statement": "IF IN EYES: Rinse cautiously with water for several minutes.. Remove contact lenses, if present and easy to do. Continue. rinsing."}, {"code": "P312", "statement": "Call a POISON CENTER/doctor if you feel unwell."}, {"code": "P321", "statement": "Specific treatment (see supplemental first aid instructions on. this label)."}, {"code": "P332 + P313", "statement": "If skin irritation occurs: Get medical advice/ attention."}, {"code": "P337 + P313", "statement": "If eye irritation persists: Get medical advice/ attention."}, {"code": "P362", "statement": "Take off contaminated clothing and wash before reuse."}, {"code": "P403 + P233", "statement": "Store in a well-ventilated place. Keep container tightly closed."}, {"code": "P405", "statement": "Store locked up."}, {"code": "P501", "statement": "Dispose of contents/ container to an approved waste disposal. plant."}], "canonical_smiles": "No data available", "isomeric_smiles": "No data available"}]