[{"id": 15285, "product_number": "65369", "CAS_number": "17257-71-5", "product_name": "(S)-(-)-alpha-Methoxy-alpha-trifluormeth", "product_brand": "Sigma-Aldrich", "supplier": {"company": ":  Sigma-Aldrich Inc.", "location": "3050 SPRUCE ST. ST. LOUIS MO  63103. UNITED STATES", "tel": ":  +1 314 771-5765", "fax": ":  +1 800 325-5052"}, "formula": ":  C10H9F3O3", "mw": ":  234.17 g/mol", "ec": ":  241-292-1. TabulaTable(extraction_method=stream, page_number=2, top=495.0, bottom=565.0, left=80.0, right=558.0, width=478.0, height=70.0, data=\n+---------------------------------------------------------++-------------+\n|Component Classification                                 ||Concentration|\n+---------------------------------------------------------++-------------+\n|(-)-\u03b1-Methoxy-\u03b1-(trifluoromethyl)phenylacetic acid       ||             |\n+---------------------------------------------------------++-------------+\n|Skin Irrit. 2; Eye Irrit. 2A; STOT SE 3; H315, H319, H335||<= 100 %     |\n+---------------------------------------------------------++-------------+\n, additional_ops=['strip_text', 'merge_rows', 'pull_down_to_empty'])", "appearance": "Form: Solidified mass or fragments. Colour: colourless", "odor": "No data available", "pH": "No data available", "melting_point": "Melting point/range: 46 - 49 \u00b0C (115 - 120 \u00b0F) - lit.. point/freezing point", "flash_point": "113 \u00b0C (235 \u00b0F) - closed cup", "evaporation_rate": "No data available", "flammability": "No data available. gas)", "vapor_pressure": "No data available", "vapor_density": "No data available", "density": "No data available", "water_solubility": "No data available", "partition_coefficient": "No data available. n-octanol/water", "autoignition": "No data available", "decomposition": "No data available. temperature", "viscosity": "No data available", "explosive_properties": "No data available", "oxidizing_properties": "No data available", "bulk_density": "No data available", "particle_size": "No data available", "statements": [{"code": "H315", "statement": "Causes skin irritation."}, {"code": "H319", "statement": "Causes serious eye irritation."}, {"code": "H335", "statement": "May cause respiratory irritation.. Precautionary statement(s)"}, {"code": "P261", "statement": "Avoid breathing dust/ fume/ gas/ mist/ vapours/ spray."}, {"code": "P264", "statement": "Wash skin thoroughly after handling."}, {"code": "P271", "statement": "Use only outdoors or in a well-ventilated area."}, {"code": "P280", "statement": "Wear protective gloves/ eye protection/ face protection."}, {"code": "P302 + P352", "statement": "IF ON SKIN: Wash with plenty of soap and water."}, {"code": "P304 + P340", "statement": "IF INHALED: Remove victim to fresh air and keep at rest in a. position comfortable for breathing."}, {"code": "P305 + P351 + P338", "statement": "IF IN EYES: Rinse cautiously with water for several minutes.. Remove contact lenses, if present and easy to do. Continue. rinsing."}, {"code": "P312", "statement": "Call a POISON CENTER/doctor if you feel unwell."}, {"code": "P321", "statement": "Specific treatment (see supplemental first aid instructions on. this label)."}, {"code": "P332 + P313", "statement": "If skin irritation occurs: Get medical advice/ attention."}, {"code": "P337 + P313", "statement": "If eye irritation persists: Get medical advice/ attention."}, {"code": "P362", "statement": "Take off contaminated clothing and wash before reuse."}, {"code": "P403 + P233", "statement": "Store in a well-ventilated place. Keep container tightly closed."}, {"code": "P405", "statement": "Store locked up."}, {"code": "P501", "statement": "Dispose of contents/ container to an approved waste disposal. plant."}, {"code": "H317", "statement": "May cause an allergic skin reaction."}, {"code": "H334", "statement": "May cause allergy or asthma symptoms or breathing difficulties. if inhaled.. Precautionary statement(s)"}, {"code": "P261", "statement": "Avoid breathing dust/ fume/ gas/ mist/ vapors/ spray."}, {"code": "P272", "statement": "Contaminated work clothing should not be allowed out of the. workplace."}, {"code": "P280", "statement": "Wear protective gloves."}, {"code": "P285", "statement": "In case of inadequate ventilation wear respiratory protection."}, {"code": "P302 + P352", "statement": "IF ON SKIN: Wash with plenty of soap and water."}, {"code": "P304 + P341", "statement": "IF INHALED: If breathing is difficult, remove person to fresh air. and keep comfortable for breathing."}, {"code": "P321", "statement": "Specific treatment (see supplemental first aid instructions on. this label)."}, {"code": "P333 + P313", "statement": "If skin irritation or rash occurs: Get medical advice/ attention."}, {"code": "P342 + P311", "statement": "If experiencing respiratory symptoms: Call a POISON CENTER/. doctor."}, {"code": "P363", "statement": "Wash contaminated clothing before reuse."}, {"code": "P501", "statement": "Dispose of contents/ container to an approved waste disposal. plant."}, {"code": "H319", "statement": "Causes serious eye irritation.. Precautionary statement(s)"}, {"code": "P264", "statement": "Wash skin thoroughly after handling."}, {"code": "P280", "statement": "Wear protective gloves/ eye protection/ face protection."}, {"code": "P305 + P351 + P338", "statement": "IF IN EYES: Rinse cautiously with water for several minutes.. Remove contact lenses, if present and easy to do. Continue. rinsing."}, {"code": "P337 + P313", "statement": "If eye irritation persists: Get medical advice/ attention."}, {"code": "H228", "statement": "Flammable solid.. Precautionary statement(s)"}, {"code": "P210", "statement": "Keep away from heat/ sparks/ open flames/ hot surfaces. No. smoking."}, {"code": "P240", "statement": "Ground/bond container and receiving equipment."}, {"code": "P241", "statement": "Use explosion-proof electrical/ ventilating/ lighting/ equipment."}, {"code": "P280", "statement": "Wear protective gloves/ eye protection/ face protection."}, {"code": "P370 + P378", "statement": "In case of fire: Use dry sand, dry chemical or alcohol-resistant. foam for extinction."}, {"code": "H372", "statement": "Causes damage to organs (Thyroid) through prolonged or. repeated exposure if swallowed."}], "canonical_smiles": "No data available", "isomeric_smiles": "No data available"}, {"id": 23506, "product_number": "C5020", "CAS_number": "27164-46-1", "product_name": "Cefazolin sodium salt", "product_brand": "Sigma", "supplier": {"company": ":  Sigma-Aldrich Inc.", "location": "3050 SPRUCE ST. ST. LOUIS MO  63103. UNITED STATES", "tel": ":  +1 314 771-5765", "fax": ":  +1 800 325-5052"}, "formula": ":  C14H13N8NaO4S3", "mw": ":  476.49 g/mol", "ec": ":  248-278-4. TabulaTable(extraction_method=stream, page_number=2, top=407.0, bottom=477.0, left=80.0, right=558.0, width=478.0, height=70.0, data=\n+-----------------------------------------------------------------------------------------------------------------------------------------------------------+-------------+\n|Component Classification                                                                                                                                   |Concentration|\n+-----------------------------------------------------------------------------------------------------------------------------------------------------------+-------------+\n|Sodium (6r-trans)-3-[[(5-methyl-1,3,4-thiadiazol-2-yl)thio]methyl]-8-oxo-7-(1h - tetrazol-1-ylacetamido)-5-thia-1-azabicyclo[4.2.0]oct-2-ene-2-carboxyl ate|             |\n+-----------------------------------------------------------------------------------------------------------------------------------------------------------+-------------+\n|Resp. Sens. 1; Skin Sens. 1; H334, H317                                                                                                                    |<= 100 %     |\n+-----------------------------------------------------------------------------------------------------------------------------------------------------------+-------------+\n, additional_ops=['strip_text', 'merge_rows', 'pull_down_to_empty'])", "appearance": "Form: solid. Color: whiteoff-white", "odor": "No data available", "pH": "No data available", "melting_point": "No data available. point/freezing point", "flash_point": "()No data available", "evaporation_rate": "No data available", "flammability": "No data available. gas)", "vapor_pressure": "No data available", "vapor_density": "No data available", "density": "No data available. Relative density. No data available", "water_solubility": "No data available", "partition_coefficient": "No data available. n-octanol/water", "autoignition": "No data available. temperature", "decomposition": "No data available. temperature", "viscosity": "No data available", "explosive_properties": "No data available", "oxidizing_properties": "No data available", "bulk_density": "No data available", "particle_size": "No data available", "statements": [{"code": "H315", "statement": "Causes skin irritation."}, {"code": "H319", "statement": "Causes serious eye irritation."}, {"code": "H335", "statement": "May cause respiratory irritation.. Precautionary statement(s)"}, {"code": "P261", "statement": "Avoid breathing dust/ fume/ gas/ mist/ vapours/ spray."}, {"code": "P264", "statement": "Wash skin thoroughly after handling."}, {"code": "P271", "statement": "Use only outdoors or in a well-ventilated area."}, {"code": "P280", "statement": "Wear protective gloves/ eye protection/ face protection."}, {"code": "P302 + P352", "statement": "IF ON SKIN: Wash with plenty of soap and water."}, {"code": "P304 + P340", "statement": "IF INHALED: Remove victim to fresh air and keep at rest in a. position comfortable for breathing."}, {"code": "P305 + P351 + P338", "statement": "IF IN EYES: Rinse cautiously with water for several minutes.. Remove contact lenses, if present and easy to do. Continue. rinsing."}, {"code": "P312", "statement": "Call a POISON CENTER/doctor if you feel unwell."}, {"code": "P321", "statement": "Specific treatment (see supplemental first aid instructions on. this label)."}, {"code": "P332 + P313", "statement": "If skin irritation occurs: Get medical advice/ attention."}, {"code": "P337 + P313", "statement": "If eye irritation persists: Get medical advice/ attention."}, {"code": "P362", "statement": "Take off contaminated clothing and wash before reuse."}, {"code": "P403 + P233", "statement": "Store in a well-ventilated place. Keep container tightly closed."}, {"code": "P405", "statement": "Store locked up."}, {"code": "P501", "statement": "Dispose of contents/ container to an approved waste disposal. plant."}, {"code": "H317", "statement": "May cause an allergic skin reaction."}, {"code": "H334", "statement": "May cause allergy or asthma symptoms or breathing difficulties. if inhaled.. Precautionary statement(s)"}, {"code": "P261", "statement": "Avoid breathing dust/ fume/ gas/ mist/ vapors/ spray."}, {"code": "P272", "statement": "Contaminated work clothing should not be allowed out of the. workplace."}, {"code": "P280", "statement": "Wear protective gloves."}, {"code": "P285", "statement": "In case of inadequate ventilation wear respiratory protection."}, {"code": "P302 + P352", "statement": "IF ON SKIN: Wash with plenty of soap and water."}, {"code": "P304 + P341", "statement": "IF INHALED: If breathing is difficult, remove person to fresh air. and keep comfortable for breathing."}, {"code": "P321", "statement": "Specific treatment (see supplemental first aid instructions on. this label)."}, {"code": "P333 + P313", "statement": "If skin irritation or rash occurs: Get medical advice/ attention."}, {"code": "P342 + P311", "statement": "If experiencing respiratory symptoms: Call a POISON CENTER/. doctor."}, {"code": "P363", "statement": "Wash contaminated clothing before reuse."}, {"code": "P501", "statement": "Dispose of contents/ container to an approved waste disposal. plant."}, {"code": "H319", "statement": "Causes serious eye irritation.. Precautionary statement(s)"}, {"code": "P264", "statement": "Wash skin thoroughly after handling."}, {"code": "P280", "statement": "Wear protective gloves/ eye protection/ face protection."}, {"code": "P305 + P351 + P338", "statement": "IF IN EYES: Rinse cautiously with water for several minutes.. Remove contact lenses, if present and easy to do. Continue. rinsing."}, {"code": "P337 + P313", "statement": "If eye irritation persists: Get medical advice/ attention."}, {"code": "H228", "statement": "Flammable solid.. Precautionary statement(s)"}, {"code": "P210", "statement": "Keep away from heat/ sparks/ open flames/ hot surfaces. No. smoking."}, {"code": "P240", "statement": "Ground/bond container and receiving equipment."}, {"code": "P241", "statement": "Use explosion-proof electrical/ ventilating/ lighting/ equipment."}, {"code": "P280", "statement": "Wear protective gloves/ eye protection/ face protection."}, {"code": "P370 + P378", "statement": "In case of fire: Use dry sand, dry chemical or alcohol-resistant. foam for extinction."}, {"code": "H372", "statement": "Causes damage to organs (Thyroid) through prolonged or. repeated exposure if swallowed."}], "canonical_smiles": "CC1=NN=C(S1)SCC2=C(N3C(C(C3=O)NC(=O)CN4C=NN=N4)SC2)C(=O)[O-].[Na+]", "isomeric_smiles": "CC1=NN=C(S1)SCC2=C(N3[C@@H]([C@@H](C3=O)NC(=O)CN4C=NN=N4)SC2)C(=O)[O-].[Na+]"}, {"id": 1928, "product_number": "424528", "CAS_number": "6425-39-4", "product_name": "4,4\u2032-(Oxydi-2,1-ethanediyl)bismorpholine", "product_brand": "Aldrich", "supplier": {"company": ":  Sigma-Aldrich Inc.", "location": "3050 SPRUCE ST. ST. LOUIS MO  63103. UNITED STATES", "tel": ":  +1 314 771-5765", "fax": ":  +1 800 325-5052"}, "formula": ":  C12H24N2O3", "mw": ":  244.33 g/mol", "ec": ":  229-194-7. No components need to be disclosed according to the applicable regulations.. For the full text of the H-Statements mentioned in this Section, see Section 16.", "appearance": "Form: liquid. Color: yellow", "odor": "No data available", "pH": "No data available", "melting_point": "No data available. point/freezing point", "flash_point": "()No data available", "evaporation_rate": "No data available", "flammability": "No data available. gas)", "vapor_pressure": "No data available", "vapor_density": "No data available", "density": "1.06 g/cm3 at 25 \u00b0C (77 \u00b0F) - lit.. Relative density. No data available", "water_solubility": "No data available", "partition_coefficient": "No data available. n-octanol/water", "autoignition": "No data available. temperature", "decomposition": "No data available. temperature", "viscosity": "No data available", "explosive_properties": "No data available", "oxidizing_properties": "No data available", "bulk_density": "No data available", "particle_size": "No data available", "statements": [{"code": "H315", "statement": "Causes skin irritation."}, {"code": "H319", "statement": "Causes serious eye irritation."}, {"code": "H335", "statement": "May cause respiratory irritation.. Precautionary statement(s)"}, {"code": "P261", "statement": "Avoid breathing dust/ fume/ gas/ mist/ vapours/ spray."}, {"code": "P264", "statement": "Wash skin thoroughly after handling."}, {"code": "P271", "statement": "Use only outdoors or in a well-ventilated area."}, {"code": "P280", "statement": "Wear protective gloves/ eye protection/ face protection."}, {"code": "P302 + P352", "statement": "IF ON SKIN: Wash with plenty of soap and water."}, {"code": "P304 + P340", "statement": "IF INHALED: Remove victim to fresh air and keep at rest in a. position comfortable for breathing."}, {"code": "P305 + P351 + P338", "statement": "IF IN EYES: Rinse cautiously with water for several minutes.. Remove contact lenses, if present and easy to do. Continue. rinsing."}, {"code": "P312", "statement": "Call a POISON CENTER/doctor if you feel unwell."}, {"code": "P321", "statement": "Specific treatment (see supplemental first aid instructions on. this label)."}, {"code": "P332 + P313", "statement": "If skin irritation occurs: Get medical advice/ attention."}, {"code": "P337 + P313", "statement": "If eye irritation persists: Get medical advice/ attention."}, {"code": "P362", "statement": "Take off contaminated clothing and wash before reuse."}, {"code": "P403 + P233", "statement": "Store in a well-ventilated place. Keep container tightly closed."}, {"code": "P405", "statement": "Store locked up."}, {"code": "P501", "statement": "Dispose of contents/ container to an approved waste disposal. plant."}, {"code": "H317", "statement": "May cause an allergic skin reaction."}, {"code": "H334", "statement": "May cause allergy or asthma symptoms or breathing difficulties. if inhaled.. Precautionary statement(s)"}, {"code": "P261", "statement": "Avoid breathing dust/ fume/ gas/ mist/ vapors/ spray."}, {"code": "P272", "statement": "Contaminated work clothing should not be allowed out of the. workplace."}, {"code": "P280", "statement": "Wear protective gloves."}, {"code": "P285", "statement": "In case of inadequate ventilation wear respiratory protection."}, {"code": "P302 + P352", "statement": "IF ON SKIN: Wash with plenty of soap and water."}, {"code": "P304 + P341", "statement": "IF INHALED: If breathing is difficult, remove person to fresh air. and keep comfortable for breathing."}, {"code": "P321", "statement": "Specific treatment (see supplemental first aid instructions on. this label)."}, {"code": "P333 + P313", "statement": "If skin irritation or rash occurs: Get medical advice/ attention."}, {"code": "P342 + P311", "statement": "If experiencing respiratory symptoms: Call a POISON CENTER/. doctor."}, {"code": "P363", "statement": "Wash contaminated clothing before reuse."}, {"code": "P501", "statement": "Dispose of contents/ container to an approved waste disposal. plant."}, {"code": "H319", "statement": "Causes serious eye irritation.. Precautionary statement(s)"}, {"code": "P264", "statement": "Wash skin thoroughly after handling."}, {"code": "P280", "statement": "Wear protective gloves/ eye protection/ face protection."}, {"code": "P305 + P351 + P338", "statement": "IF IN EYES: Rinse cautiously with water for several minutes.. Remove contact lenses, if present and easy to do. Continue. rinsing."}, {"code": "P337 + P313", "statement": "If eye irritation persists: Get medical advice/ attention."}, {"code": "H228", "statement": "Flammable solid.. Precautionary statement(s)"}, {"code": "P210", "statement": "Keep away from heat/ sparks/ open flames/ hot surfaces. No. smoking."}, {"code": "P240", "statement": "Ground/bond container and receiving equipment."}, {"code": "P241", "statement": "Use explosion-proof electrical/ ventilating/ lighting/ equipment."}, {"code": "P280", "statement": "Wear protective gloves/ eye protection/ face protection."}, {"code": "P370 + P378", "statement": "In case of fire: Use dry sand, dry chemical or alcohol-resistant. foam for extinction."}, {"code": "H372", "statement": "Causes damage to organs (Thyroid) through prolonged or. repeated exposure if swallowed."}], "canonical_smiles": "No data available", "isomeric_smiles": "No data available"}, {"id": 733, "product_number": "149705", "CAS_number": "21423-81-4", "product_name": "3-Chloro-4-methylbenzonitrile", "product_brand": "Aldrich", "supplier": {"company": ":  Sigma-Aldrich Inc.", "location": "3050 SPRUCE ST. ST. LOUIS MO  63103. UNITED STATES", "tel": ":  +1 314 771-5765", "fax": ":  +1 800 325-5052"}, "formula": ":  C8H6ClN", "mw": ":  151.59 g/mol", "ec": ":  244-381-3. TabulaTable(extraction_method=stream, page_number=2, top=279.0, bottom=325.0, left=80.0, right=558.0, width=478.0, height=46.0, data=\n+-----------------------+------------------+-------------+\n|Component              |Classification    |Concentration|\n+-----------------------+------------------+-------------+\n|3-chloro-p-toluonitrile|                  |             |\n+-----------------------+------------------+-------------+\n|3-chloro-p-toluonitrile|Flam. Sol. 2; H228|<= 100 %     |\n+-----------------------+------------------+-------------+\n, additional_ops=['strip_text', 'merge_rows', 'pull_down_to_empty'])", "appearance": "Form: powder. Color: white", "odor": "No data available", "pH": "No data available", "melting_point": "Melting point/range: 45 - 48 \u00b0C (113 - 118 \u00b0F) - lit.. point/freezing point", "flash_point": "84 \u00b0C (183 \u00b0F) - closed cup", "evaporation_rate": "No data available", "flammability": "The substance or mixture is a flammable solid with the category. gas). 2.", "vapor_pressure": "No data available", "vapor_density": "No data available", "density": "No data available. Relative density. No data available", "water_solubility": "No data available", "partition_coefficient": "No data available. n-octanol/water", "autoignition": "No data available. temperature", "decomposition": "No data available. temperature", "viscosity": "No data available", "explosive_properties": "No data available", "oxidizing_properties": "No data available", "bulk_density": "No data available", "particle_size": "No data available", "statements": [{"code": "H315", "statement": "Causes skin irritation."}, {"code": "H319", "statement": "Causes serious eye irritation."}, {"code": "H335", "statement": "May cause respiratory irritation.. Precautionary statement(s)"}, {"code": "P261", "statement": "Avoid breathing dust/ fume/ gas/ mist/ vapours/ spray."}, {"code": "P264", "statement": "Wash skin thoroughly after handling."}, {"code": "P271", "statement": "Use only outdoors or in a well-ventilated area."}, {"code": "P280", "statement": "Wear protective gloves/ eye protection/ face protection."}, {"code": "P302 + P352", "statement": "IF ON SKIN: Wash with plenty of soap and water."}, {"code": "P304 + P340", "statement": "IF INHALED: Remove victim to fresh air and keep at rest in a. position comfortable for breathing."}, {"code": "P305 + P351 + P338", "statement": "IF IN EYES: Rinse cautiously with water for several minutes.. Remove contact lenses, if present and easy to do. Continue. rinsing."}, {"code": "P312", "statement": "Call a POISON CENTER/doctor if you feel unwell."}, {"code": "P321", "statement": "Specific treatment (see supplemental first aid instructions on. this label)."}, {"code": "P332 + P313", "statement": "If skin irritation occurs: Get medical advice/ attention."}, {"code": "P337 + P313", "statement": "If eye irritation persists: Get medical advice/ attention."}, {"code": "P362", "statement": "Take off contaminated clothing and wash before reuse."}, {"code": "P403 + P233", "statement": "Store in a well-ventilated place. Keep container tightly closed."}, {"code": "P405", "statement": "Store locked up."}, {"code": "P501", "statement": "Dispose of contents/ container to an approved waste disposal. plant."}, {"code": "H317", "statement": "May cause an allergic skin reaction."}, {"code": "H334", "statement": "May cause allergy or asthma symptoms or breathing difficulties. if inhaled.. Precautionary statement(s)"}, {"code": "P261", "statement": "Avoid breathing dust/ fume/ gas/ mist/ vapors/ spray."}, {"code": "P272", "statement": "Contaminated work clothing should not be allowed out of the. workplace."}, {"code": "P280", "statement": "Wear protective gloves."}, {"code": "P285", "statement": "In case of inadequate ventilation wear respiratory protection."}, {"code": "P302 + P352", "statement": "IF ON SKIN: Wash with plenty of soap and water."}, {"code": "P304 + P341", "statement": "IF INHALED: If breathing is difficult, remove person to fresh air. and keep comfortable for breathing."}, {"code": "P321", "statement": "Specific treatment (see supplemental first aid instructions on. this label)."}, {"code": "P333 + P313", "statement": "If skin irritation or rash occurs: Get medical advice/ attention."}, {"code": "P342 + P311", "statement": "If experiencing respiratory symptoms: Call a POISON CENTER/. doctor."}, {"code": "P363", "statement": "Wash contaminated clothing before reuse."}, {"code": "P501", "statement": "Dispose of contents/ container to an approved waste disposal. plant."}, {"code": "H319", "statement": "Causes serious eye irritation.. Precautionary statement(s)"}, {"code": "P264", "statement": "Wash skin thoroughly after handling."}, {"code": "P280", "statement": "Wear protective gloves/ eye protection/ face protection."}, {"code": "P305 + P351 + P338", "statement": "IF IN EYES: Rinse cautiously with water for several minutes.. Remove contact lenses, if present and easy to do. Continue. rinsing."}, {"code": "P337 + P313", "statement": "If eye irritation persists: Get medical advice/ attention."}, {"code": "H228", "statement": "Flammable solid.. Precautionary statement(s)"}, {"code": "P210", "statement": "Keep away from heat/ sparks/ open flames/ hot surfaces. No. smoking."}, {"code": "P240", "statement": "Ground/bond container and receiving equipment."}, {"code": "P241", "statement": "Use explosion-proof electrical/ ventilating/ lighting/ equipment."}, {"code": "P280", "statement": "Wear protective gloves/ eye protection/ face protection."}, {"code": "P370 + P378", "statement": "In case of fire: Use dry sand, dry chemical or alcohol-resistant. foam for extinction."}, {"code": "H372", "statement": "Causes damage to organs (Thyroid) through prolonged or. repeated exposure if swallowed."}], "canonical_smiles": "CC1=C(C=C(C=C1)C#N)Cl", "isomeric_smiles": "CC1=C(C=C(C=C1)C#N)Cl"}, {"id": 48392, "product_number": "144045", "CAS_number": "19812-63-6", "product_name": "Diethyl tetradecanedioate", "product_brand": "Aldrich", "supplier": {"company": ":  Sigma-Aldrich Inc.", "location": "3050 SPRUCE ST. ST. LOUIS MO  63103. UNITED STATES", "tel": ":  +1 314 771-5765", "fax": ":  +1 800 325-5052"}, "formula": ":  C18H34O4", "mw": ":  314,46 g/mol", "ec": ":  243-340-7. No components need to be disclosed according to the applicable regulations.", "appearance": "Form: solid", "odor": "No data available", "pH": "No data available", "melting_point": "Melting point/range: 29 - 31 \u00b0C - lit.. point/freezing point", "flash_point": "106,00 \u00b0C - closed cup", "evaporation_rate": "No data available", "flammability": "No data available. gas)", "vapor_pressure": "No data available", "vapor_density": "No data available", "density": "No data available", "water_solubility": "No data available", "partition_coefficient": "No data available. n-octanol/water", "autoignition": "No data available. temperature", "decomposition": "No data available. temperature", "viscosity": "No data available", "explosive_properties": "No data available", "oxidizing_properties": "No data available", "bulk_density": "No data available", "particle_size": "No data available", "statements": [{"code": "H315", "statement": "Causes skin irritation."}, {"code": "H319", "statement": "Causes serious eye irritation."}, {"code": "H335", "statement": "May cause respiratory irritation.. Precautionary statement(s)"}, {"code": "P261", "statement": "Avoid breathing dust/ fume/ gas/ mist/ vapours/ spray."}, {"code": "P264", "statement": "Wash skin thoroughly after handling."}, {"code": "P271", "statement": "Use only outdoors or in a well-ventilated area."}, {"code": "P280", "statement": "Wear protective gloves/ eye protection/ face protection."}, {"code": "P302 + P352", "statement": "IF ON SKIN: Wash with plenty of soap and water."}, {"code": "P304 + P340", "statement": "IF INHALED: Remove victim to fresh air and keep at rest in a. position comfortable for breathing."}, {"code": "P305 + P351 + P338", "statement": "IF IN EYES: Rinse cautiously with water for several minutes.. Remove contact lenses, if present and easy to do. Continue. rinsing."}, {"code": "P312", "statement": "Call a POISON CENTER/doctor if you feel unwell."}, {"code": "P321", "statement": "Specific treatment (see supplemental first aid instructions on. this label)."}, {"code": "P332 + P313", "statement": "If skin irritation occurs: Get medical advice/ attention."}, {"code": "P337 + P313", "statement": "If eye irritation persists: Get medical advice/ attention."}, {"code": "P362", "statement": "Take off contaminated clothing and wash before reuse."}, {"code": "P403 + P233", "statement": "Store in a well-ventilated place. Keep container tightly closed."}, {"code": "P405", "statement": "Store locked up."}, {"code": "P501", "statement": "Dispose of contents/ container to an approved waste disposal. plant."}, {"code": "H317", "statement": "May cause an allergic skin reaction."}, {"code": "H334", "statement": "May cause allergy or asthma symptoms or breathing difficulties. if inhaled.. Precautionary statement(s)"}, {"code": "P261", "statement": "Avoid breathing dust/ fume/ gas/ mist/ vapors/ spray."}, {"code": "P272", "statement": "Contaminated work clothing should not be allowed out of the. workplace."}, {"code": "P280", "statement": "Wear protective gloves."}, {"code": "P285", "statement": "In case of inadequate ventilation wear respiratory protection."}, {"code": "P302 + P352", "statement": "IF ON SKIN: Wash with plenty of soap and water."}, {"code": "P304 + P341", "statement": "IF INHALED: If breathing is difficult, remove person to fresh air. and keep comfortable for breathing."}, {"code": "P321", "statement": "Specific treatment (see supplemental first aid instructions on. this label)."}, {"code": "P333 + P313", "statement": "If skin irritation or rash occurs: Get medical advice/ attention."}, {"code": "P342 + P311", "statement": "If experiencing respiratory symptoms: Call a POISON CENTER/. doctor."}, {"code": "P363", "statement": "Wash contaminated clothing before reuse."}, {"code": "P501", "statement": "Dispose of contents/ container to an approved waste disposal. plant."}, {"code": "H319", "statement": "Causes serious eye irritation.. Precautionary statement(s)"}, {"code": "P264", "statement": "Wash skin thoroughly after handling."}, {"code": "P280", "statement": "Wear protective gloves/ eye protection/ face protection."}, {"code": "P305 + P351 + P338", "statement": "IF IN EYES: Rinse cautiously with water for several minutes.. Remove contact lenses, if present and easy to do. Continue. rinsing."}, {"code": "P337 + P313", "statement": "If eye irritation persists: Get medical advice/ attention."}, {"code": "H228", "statement": "Flammable solid.. Precautionary statement(s)"}, {"code": "P210", "statement": "Keep away from heat/ sparks/ open flames/ hot surfaces. No. smoking."}, {"code": "P240", "statement": "Ground/bond container and receiving equipment."}, {"code": "P241", "statement": "Use explosion-proof electrical/ ventilating/ lighting/ equipment."}, {"code": "P280", "statement": "Wear protective gloves/ eye protection/ face protection."}, {"code": "P370 + P378", "statement": "In case of fire: Use dry sand, dry chemical or alcohol-resistant. foam for extinction."}, {"code": "H372", "statement": "Causes damage to organs (Thyroid) through prolonged or. repeated exposure if swallowed."}], "canonical_smiles": "CCOC(=O)CCCCCCCCCCCCC(=O)OCC", "isomeric_smiles": "CCOC(=O)CCCCCCCCCCCCC(=O)OCC"}, {"id": 2051, "product_number": "1548280", "CAS_number": "7681-11-0", "product_name": "Potassium Iodide, United States", "product_brand": "US Pharmacopeia", "supplier": {"company": ":  Sigma-Aldrich Inc.", "location": "3050 SPRUCE ST. ST. LOUIS MO  63103. UNITED STATES", "tel": ":  +1 314 771-5765", "fax": ":  +1 800 325-5052"}, "formula": "No data available", "mw": ":  166.01 g/mol", "ec": "No data available", "appearance": "Form: crystalline. Color: white", "odor": "Not applicable", "pH": "ca.6.9 at 50 g/l at 20 \u00b0C (68 \u00b0F)", "melting_point": "Melting point: 680 \u00b0C (1256 \u00b0F). point/freezing point", "flash_point": "No data available", "evaporation_rate": "No data available", "flammability": "The product is not flammable.. gas)", "vapor_pressure": "ca.1 hPa at 745 \u00b0C (1373 \u00b0F)", "vapor_density": "No data available", "density": "3.13 g/cm3. Relative density. No data available", "water_solubility": "ca.1,430 g/l at 25 \u00b0C (77 \u00b0F) - completely soluble", "partition_coefficient": "Not applicable for inorganic substances. n-octanol/water", "autoignition": "No data available. temperature", "decomposition": "No data available. temperature", "viscosity": "No data available", "explosive_properties": "No data available", "oxidizing_properties": "No data available", "bulk_density": "No data available", "particle_size": "No data available", "statements": [{"code": "H315", "statement": "Causes skin irritation."}, {"code": "H319", "statement": "Causes serious eye irritation."}, {"code": "H335", "statement": "May cause respiratory irritation.. Precautionary statement(s)"}, {"code": "P261", "statement": "Avoid breathing dust/ fume/ gas/ mist/ vapours/ spray."}, {"code": "P264", "statement": "Wash skin thoroughly after handling."}, {"code": "P271", "statement": "Use only outdoors or in a well-ventilated area."}, {"code": "P280", "statement": "Wear protective gloves/ eye protection/ face protection."}, {"code": "P302 + P352", "statement": "IF ON SKIN: Wash with plenty of soap and water."}, {"code": "P304 + P340", "statement": "IF INHALED: Remove victim to fresh air and keep at rest in a. position comfortable for breathing."}, {"code": "P305 + P351 + P338", "statement": "IF IN EYES: Rinse cautiously with water for several minutes.. Remove contact lenses, if present and easy to do. Continue. rinsing."}, {"code": "P312", "statement": "Call a POISON CENTER/doctor if you feel unwell."}, {"code": "P321", "statement": "Specific treatment (see supplemental first aid instructions on. this label)."}, {"code": "P332 + P313", "statement": "If skin irritation occurs: Get medical advice/ attention."}, {"code": "P337 + P313", "statement": "If eye irritation persists: Get medical advice/ attention."}, {"code": "P362", "statement": "Take off contaminated clothing and wash before reuse."}, {"code": "P403 + P233", "statement": "Store in a well-ventilated place. Keep container tightly closed."}, {"code": "P405", "statement": "Store locked up."}, {"code": "P501", "statement": "Dispose of contents/ container to an approved waste disposal. plant."}, {"code": "H317", "statement": "May cause an allergic skin reaction."}, {"code": "H334", "statement": "May cause allergy or asthma symptoms or breathing difficulties. if inhaled.. Precautionary statement(s)"}, {"code": "P261", "statement": "Avoid breathing dust/ fume/ gas/ mist/ vapors/ spray."}, {"code": "P272", "statement": "Contaminated work clothing should not be allowed out of the. workplace."}, {"code": "P280", "statement": "Wear protective gloves."}, {"code": "P285", "statement": "In case of inadequate ventilation wear respiratory protection."}, {"code": "P302 + P352", "statement": "IF ON SKIN: Wash with plenty of soap and water."}, {"code": "P304 + P341", "statement": "IF INHALED: If breathing is difficult, remove person to fresh air. and keep comfortable for breathing."}, {"code": "P321", "statement": "Specific treatment (see supplemental first aid instructions on. this label)."}, {"code": "P333 + P313", "statement": "If skin irritation or rash occurs: Get medical advice/ attention."}, {"code": "P342 + P311", "statement": "If experiencing respiratory symptoms: Call a POISON CENTER/. doctor."}, {"code": "P363", "statement": "Wash contaminated clothing before reuse."}, {"code": "P501", "statement": "Dispose of contents/ container to an approved waste disposal. plant."}, {"code": "H319", "statement": "Causes serious eye irritation.. Precautionary statement(s)"}, {"code": "P264", "statement": "Wash skin thoroughly after handling."}, {"code": "P280", "statement": "Wear protective gloves/ eye protection/ face protection."}, {"code": "P305 + P351 + P338", "statement": "IF IN EYES: Rinse cautiously with water for several minutes.. Remove contact lenses, if present and easy to do. Continue. rinsing."}, {"code": "P337 + P313", "statement": "If eye irritation persists: Get medical advice/ attention."}, {"code": "H228", "statement": "Flammable solid.. Precautionary statement(s)"}, {"code": "P210", "statement": "Keep away from heat/ sparks/ open flames/ hot surfaces. No. smoking."}, {"code": "P240", "statement": "Ground/bond container and receiving equipment."}, {"code": "P241", "statement": "Use explosion-proof electrical/ ventilating/ lighting/ equipment."}, {"code": "P280", "statement": "Wear protective gloves/ eye protection/ face protection."}, {"code": "P370 + P378", "statement": "In case of fire: Use dry sand, dry chemical or alcohol-resistant. foam for extinction."}, {"code": "H372", "statement": "Causes damage to organs (Thyroid) through prolonged or. repeated exposure if swallowed."}], "canonical_smiles": "No data available", "isomeric_smiles": "No data available"}]