[{"id": 1692, "product_number": "512230", "CAS_number": "144432-85-9", "product_name": "3-Chloro-4-fluorophenylboronic acid", "product_brand": "Aldrich", "supplier": {"company": ":  Sigma-Aldrich Inc.", "location": "3050 SPRUCE ST. ST. LOUIS MO  63103. UNITED STATES", "tel": ":  +1 314 771-5765", "fax": ":  +1 800 325-5052"}, "formula": ":  C6H5BClFO2", "mw": ":  174.37 g/mol", "ec": "No data available", "appearance": "Form: solid", "odor": "No data available", "pH": "No data available", "melting_point": "Melting point/range: 242 - 247 \u00b0C (468 - 477 \u00b0F). point/freezing point", "flash_point": "()No data available", "evaporation_rate": "No data available", "flammability": "No data available. gas)", "vapor_pressure": "No data available", "vapor_density": "No data available", "density": "No data available. Relative density. No data available", "water_solubility": "No data available", "partition_coefficient": "No data available. n-octanol/water", "autoignition": "No data available. temperature", "decomposition": "No data available. temperature", "viscosity": "No data available", "explosive_properties": "No data available", "oxidizing_properties": "No data available", "bulk_density": "No data available", "particle_size": "No data available", "statements": [{"code": "H351", "statement": "Suspected of causing cancer.. Precautionary statement(s)"}, {"code": "P201", "statement": "Obtain special instructions before use."}, {"code": "P202", "statement": "Do not handle until all safety precautions have been read and. understood."}, {"code": "P280", "statement": "Wear protective gloves/ protective clothing/ eye protection/ face. protection."}, {"code": "P308 + P313", "statement": "IF exposed or concerned: Get medical advice/ attention."}, {"code": "P405", "statement": "Store locked up."}, {"code": "P501", "statement": "Dispose of contents/ container to an approved waste disposal. plant."}], "canonical_smiles": "B(C1=CC(=C(C=C1)F)Cl)(O)O", "isomeric_smiles": "B(C1=CC(=C(C=C1)F)Cl)(O)O"}, {"id": 38993, "product_number": "704113", "CAS_number": "308068-56-6", "product_name": "Carbon nanotube, single-walled", "product_brand": "Aldrich", "supplier": {"company": ":  Sigma-Aldrich Inc.", "location": "3050 SPRUCE ST. ST. LOUIS MO  63103. UNITED STATES", "tel": ":  +1 314 771-5765", "fax": ":  +1 800 325-5052"}, "formula": "No data available", "mw": "No data available", "ec": "No data available", "appearance": "Form: powder. Color: black", "odor": "No data available", "pH": "No data available", "melting_point": "3,652 - 3,697 \u00b0C (6,606 - 6,687 \u00b0F). point/freezing point", "flash_point": "()Not applicable", "evaporation_rate": "No data available", "flammability": "No data available. gas)", "vapor_pressure": "No data available", "vapor_density": "No data available", "density": "1.7 - 1.9 g/cm3. Relative density. No data available", "water_solubility": "insoluble", "partition_coefficient": "No data available. n-octanol/water", "autoignition": "No data available. temperature", "decomposition": "No data available. temperature", "viscosity": "No data available", "explosive_properties": "No data available", "oxidizing_properties": "No data available", "bulk_density": "No data available", "particle_size": "No data available", "statements": [{"code": "H351", "statement": "Suspected of causing cancer.. Precautionary statement(s)"}, {"code": "P201", "statement": "Obtain special instructions before use."}, {"code": "P202", "statement": "Do not handle until all safety precautions have been read and. understood."}, {"code": "P280", "statement": "Wear protective gloves/ protective clothing/ eye protection/ face. protection."}, {"code": "P308 + P313", "statement": "IF exposed or concerned: Get medical advice/ attention."}, {"code": "P405", "statement": "Store locked up."}, {"code": "P501", "statement": "Dispose of contents/ container to an approved waste disposal. plant."}], "canonical_smiles": "[C]", "isomeric_smiles": "[C]"}, {"id": 1733, "product_number": "1478367", "CAS_number": "144689-63-4", "product_name": "Olmesartan Medoxomil, United States", "product_brand": "US Pharmacopeia", "supplier": {"company": ":  Sigma-Aldrich Inc.", "location": "3050 SPRUCE ST. ST. LOUIS MO  63103. UNITED STATES", "tel": ":  +1 314 771-5765", "fax": ":  +1 800 325-5052"}, "formula": ":  C29H30N6O6", "mw": ":  558.59 g/mol", "ec": "No data available", "appearance": "No data available", "odor": "No data available", "pH": "No data available", "melting_point": "No data available", "flash_point": "No data available", "evaporation_rate": "No data available", "flammability": "No data available", "vapor_pressure": "No data available", "vapor_density": "No data available", "density": "No data available", "water_solubility": "No data available", "partition_coefficient": "No data available", "autoignition": "No data available", "decomposition": "No data available", "viscosity": "No data available", "explosive_properties": "No data available", "oxidizing_properties": "No data available", "bulk_density": "No data available", "particle_size": "No data available", "statements": [{"code": "H351", "statement": "Suspected of causing cancer.. Precautionary statement(s)"}, {"code": "P201", "statement": "Obtain special instructions before use."}, {"code": "P202", "statement": "Do not handle until all safety precautions have been read and. understood."}, {"code": "P280", "statement": "Wear protective gloves/ protective clothing/ eye protection/ face. protection."}, {"code": "P308 + P313", "statement": "IF exposed or concerned: Get medical advice/ attention."}, {"code": "P405", "statement": "Store locked up."}, {"code": "P501", "statement": "Dispose of contents/ container to an approved waste disposal. plant."}], "canonical_smiles": "No data available", "isomeric_smiles": "No data available"}, {"id": 1769, "product_number": "806854", "CAS_number": "7631-86-9", "product_name": "Silica, mesoporous SBA-15, Particle size", "product_brand": "Aldrich", "supplier": {"company": ":  Sigma-Aldrich Inc.", "location": "3050 SPRUCE ST. ST. LOUIS MO  63103. UNITED STATES", "tel": ":  +1 314 771-5765", "fax": ":  +1 800 325-5052"}, "formula": ":  SiO2", "mw": ":  60.08 g/mol", "ec": ":  231-545-4. TabulaTable(extraction_method=stream, page_number=2, top=127.0, bottom=172.0, left=80.0, right=558.0, width=478.0, height=45.0, data=\n+---------------+--------------+-------------+\n|Component      |Classification|Concentration|\n+---------------+--------------+-------------+\n|silicon dioxide|              |             |\n+---------------+--------------+-------------+\n|silicon dioxide|              |<= 100 %     |\n+---------------+--------------+-------------+\n, additional_ops=['strip_text', 'merge_rows', 'pull_down_to_empty'])", "appearance": "Form: powder. Color: white", "odor": "Not applicable", "pH": "3.7 - 4.7 at >= 40 g/l at 25 \u00b0C (77 \u00b0F)", "melting_point": "Melting point/range: > 1,600 \u00b0C (> 2,912 \u00b0F). point/freezing point", "flash_point": "()Not applicable", "evaporation_rate": "No data available", "flammability": "No data available. gas)", "vapor_pressure": "No data available", "vapor_density": "No data available", "density": "2.2 g/cm3. Relative density. No data available", "water_solubility": "ca.0.076 g/l at 37 \u00b0C (99 \u00b0F) - OECD Test Guideline 105 -. slightly soluble", "partition_coefficient": "Not applicable for inorganic substances. n-octanol/water", "autoignition": "does not ignite. temperature", "decomposition": "No data available. temperature", "viscosity": "No data available", "explosive_properties": "No data available", "oxidizing_properties": "No data available", "bulk_density": "No data available", "particle_size": "No data available", "statements": [{"code": "H351", "statement": "Suspected of causing cancer.. Precautionary statement(s)"}, {"code": "P201", "statement": "Obtain special instructions before use."}, {"code": "P202", "statement": "Do not handle until all safety precautions have been read and. understood."}, {"code": "P280", "statement": "Wear protective gloves/ protective clothing/ eye protection/ face. protection."}, {"code": "P308 + P313", "statement": "IF exposed or concerned: Get medical advice/ attention."}, {"code": "P405", "statement": "Store locked up."}, {"code": "P501", "statement": "Dispose of contents/ container to an approved waste disposal. plant."}], "canonical_smiles": "No data available", "isomeric_smiles": "No data available"}, {"id": 1796, "product_number": "806765", "CAS_number": "7631-86-9", "product_name": "Silica,mesoporous Particle size 3 \u00b5m, pore", "product_brand": "Aldrich", "supplier": {"company": ":  Sigma-Aldrich Inc.", "location": "3050 SPRUCE ST. ST. LOUIS MO  63103. UNITED STATES", "tel": ":  +1 314 771-5765", "fax": ":  +1 800 325-5052"}, "formula": ":  SiO2", "mw": ":  60.08 g/mol", "ec": ":  231-545-4. TabulaTable(extraction_method=stream, page_number=2, top=103.0, bottom=149.0, left=80.0, right=558.0, width=478.0, height=46.0, data=\n+---------------+--------------+-------------+\n|Component      |Classification|Concentration|\n+---------------+--------------+-------------+\n|silicon dioxide|              |             |\n+---------------+--------------+-------------+\n|silicon dioxide|              |<= 100 %     |\n+---------------+--------------+-------------+\n, additional_ops=['strip_text', 'merge_rows', 'pull_down_to_empty'])", "appearance": "Form: powder. Color: white", "odor": "Not applicable", "pH": "3.7 - 4.7 at >= 40 g/l at 25 \u00b0C (77 \u00b0F)", "melting_point": "Melting point/range: > 1,600 \u00b0C (> 2,912 \u00b0F). point/freezing point", "flash_point": "()Not applicable", "evaporation_rate": "No data available", "flammability": "No data available. gas)", "vapor_pressure": "No data available", "vapor_density": "No data available", "density": "2.2 g/cm3. Relative density. No data available", "water_solubility": "ca.0.076 g/l at 37 \u00b0C (99 \u00b0F) - OECD Test Guideline 105 -. slightly soluble", "partition_coefficient": "Not applicable for inorganic substances. n-octanol/water", "autoignition": "does not ignite. temperature", "decomposition": "No data available. temperature", "viscosity": "No data available", "explosive_properties": "No data available", "oxidizing_properties": "No data available", "bulk_density": "No data available", "particle_size": "No data available", "statements": [{"code": "H351", "statement": "Suspected of causing cancer.. Precautionary statement(s)"}, {"code": "P201", "statement": "Obtain special instructions before use."}, {"code": "P202", "statement": "Do not handle until all safety precautions have been read and. understood."}, {"code": "P280", "statement": "Wear protective gloves/ protective clothing/ eye protection/ face. protection."}, {"code": "P308 + P313", "statement": "IF exposed or concerned: Get medical advice/ attention."}, {"code": "P405", "statement": "Store locked up."}, {"code": "P501", "statement": "Dispose of contents/ container to an approved waste disposal. plant."}], "canonical_smiles": "No data available", "isomeric_smiles": "No data available"}, {"id": 46649, "product_number": "226017", "CAS_number": "521-24-4", "product_name": "1,2-Naphthoquinone-4-sulfonic acid sodium", "product_brand": "Aldrich", "supplier": {"company": ":  Sigma-Aldrich Inc.", "location": "3050 SPRUCE ST. ST. LOUIS MO  63103. UNITED STATES", "tel": ":  +1 314 771-5765", "fax": ":  +1 800 325-5052"}, "formula": ":  C10H5NaO5S", "mw": ":  260.20 g/mol", "ec": ":  208-308-9. No components need to be disclosed according to the applicable regulations.", "appearance": "Form: powder. Color: orange", "odor": "No data available", "pH": "No data available", "melting_point": "Melting point/range: 289 \u00b0C (552 \u00b0F) - dec.. point/freezing point", "flash_point": "()No data available", "evaporation_rate": "No data available", "flammability": "No data available. gas)", "vapor_pressure": "No data available", "vapor_density": "No data available", "density": "No data available. Relative density. No data available", "water_solubility": "ca.50 g/l", "partition_coefficient": "No data available. n-octanol/water", "autoignition": "No data available. temperature", "decomposition": "No data available. temperature", "viscosity": "No data available", "explosive_properties": "No data available", "oxidizing_properties": "No data available", "bulk_density": "No data available", "particle_size": "No data available", "statements": [{"code": "H351", "statement": "Suspected of causing cancer.. Precautionary statement(s)"}, {"code": "P201", "statement": "Obtain special instructions before use."}, {"code": "P202", "statement": "Do not handle until all safety precautions have been read and. understood."}, {"code": "P280", "statement": "Wear protective gloves/ protective clothing/ eye protection/ face. protection."}, {"code": "P308 + P313", "statement": "IF exposed or concerned: Get medical advice/ attention."}, {"code": "P405", "statement": "Store locked up."}, {"code": "P501", "statement": "Dispose of contents/ container to an approved waste disposal. plant."}], "canonical_smiles": "C1=CC=C2C(=C1)C(=CC(=O)C2=O)S(=O)(=O)[O-].[Na+]", "isomeric_smiles": "C1=CC=C2C(=C1)C(=CC(=O)C2=O)S(=O)(=O)[O-].[Na+]"}]