[{"id": 326, "product_number": "S411949", "CAS_number": "3761-94-2", "product_name": "1-METHYLCYCLOHEPTANOL", "product_brand": "Aldrich", "supplier": {"company": ":  Sigma-Aldrich Inc.", "location": "3050 SPRUCE ST. ST. LOUIS MO  63103. UNITED STATES", "tel": ":  +1 314 771-5765", "fax": ":  +1 800 325-5052"}, "formula": ":  C8H16O", "mw": ":  128.22 g/mol", "ec": "No data available", "appearance": "No data available", "odor": "No data available", "pH": "No data available", "melting_point": "No data available", "flash_point": "No data available", "evaporation_rate": "No data available", "flammability": "No data available", "vapor_pressure": "No data available", "vapor_density": "No data available", "density": "No data available", "water_solubility": "No data available", "partition_coefficient": "No data available", "autoignition": "No data available", "decomposition": "No data available", "viscosity": "No data available", "explosive_properties": "No data available", "oxidizing_properties": "No data available", "bulk_density": "No data available", "particle_size": "No data available", "statements": [{"code": "H302", "statement": "Harmful if swallowed.. Precautionary statement(s)"}, {"code": "P264", "statement": "Wash skin thoroughly after handling."}, {"code": "P270", "statement": "Do not eat, drink or smoke when using this product."}, {"code": "P301 + P312", "statement": "IF SWALLOWED: Call a POISON CENTER/doctor if you feel. unwell."}, {"code": "P330", "statement": "Rinse mouth."}, {"code": "P501", "statement": "Dispose of contents/ container to an approved waste disposal. plant."}], "canonical_smiles": "CC1(CCCCCC1)O", "isomeric_smiles": "CC1(CCCCCC1)O"}, {"id": 337, "product_number": "BP621", "CAS_number": "75695-93-1", "product_name": "Isradipine", "product_brand": "Sigma-Aldrich", "supplier": {"company": ":  Sigma-Aldrich Inc.", "location": "3050 SPRUCE ST. ST. LOUIS MO  63103. UNITED STATES", "tel": ":  +1 314 771-5765", "fax": ":  +1 800 325-5052"}, "formula": ":  C19H21N3O5", "mw": ":  371.39 g/mol", "ec": "No data available", "appearance": "No data available", "odor": "No data available", "pH": "No data available", "melting_point": "No data available", "flash_point": "No data available", "evaporation_rate": "No data available", "flammability": "No data available", "vapor_pressure": "No data available", "vapor_density": "No data available", "density": "No data available", "water_solubility": "No data available", "partition_coefficient": "No data available", "autoignition": "No data available", "decomposition": "No data available", "viscosity": "No data available", "explosive_properties": "No data available", "oxidizing_properties": "No data available", "bulk_density": "No data available", "particle_size": "No data available", "statements": [{"code": "H302", "statement": "Harmful if swallowed.. Precautionary statement(s)"}, {"code": "P264", "statement": "Wash skin thoroughly after handling."}, {"code": "P270", "statement": "Do not eat, drink or smoke when using this product."}, {"code": "P301 + P312", "statement": "IF SWALLOWED: Call a POISON CENTER/doctor if you feel. unwell."}, {"code": "P330", "statement": "Rinse mouth."}, {"code": "P501", "statement": "Dispose of contents/ container to an approved waste disposal. plant."}], "canonical_smiles": "CC1=C(C(C(=C(N1)C)C(=O)OC(C)C)C2=CC=CC3=NON=C32)C(=O)OC", "isomeric_smiles": "CC1=C(C(C(=C(N1)C)C(=O)OC(C)C)C2=CC=CC3=NON=C32)C(=O)OC"}, {"id": 340, "product_number": "I6658", "CAS_number": "75695-93-1", "product_name": "Isradipine", "product_brand": "Sigma", "supplier": {"company": ":  Sigma-Aldrich Inc.", "location": "3050 SPRUCE ST. ST. LOUIS MO  63103. UNITED STATES", "tel": ":  +1 314 771-5765", "fax": ":  +1 800 325-5052"}, "formula": ":  C19H21N3O5", "mw": ":  371.39 g/mol", "ec": "No data available", "appearance": "No data available", "odor": "No data available", "pH": "No data available", "melting_point": "No data available", "flash_point": "No data available", "evaporation_rate": "No data available", "flammability": "No data available", "vapor_pressure": "No data available", "vapor_density": "No data available", "density": "No data available", "water_solubility": "No data available", "partition_coefficient": "No data available", "autoignition": "No data available", "decomposition": "No data available", "viscosity": "No data available", "explosive_properties": "No data available", "oxidizing_properties": "No data available", "bulk_density": "No data available", "particle_size": "No data available", "statements": [{"code": "H302", "statement": "Harmful if swallowed.. Precautionary statement(s)"}, {"code": "P264", "statement": "Wash skin thoroughly after handling."}, {"code": "P270", "statement": "Do not eat, drink or smoke when using this product."}, {"code": "P301 + P312", "statement": "IF SWALLOWED: Call a POISON CENTER/doctor if you feel. unwell."}, {"code": "P330", "statement": "Rinse mouth."}, {"code": "P501", "statement": "Dispose of contents/ container to an approved waste disposal. plant."}], "canonical_smiles": "CC1=C(C(C(=C(N1)C)C(=O)OC(C)C)C2=CC=CC3=NON=C32)C(=O)OC", "isomeric_smiles": "CC1=C(C(C(=C(N1)C)C(=O)OC(C)C)C2=CC=CC3=NON=C32)C(=O)OC"}, {"id": 388, "product_number": "526053", "CAS_number": "3762-25-2", "product_name": "Diethyl-4-methylbenzylphosphonate", "product_brand": "Aldrich", "supplier": {"company": ":  Sigma-Aldrich Inc.", "location": "3050 SPRUCE ST. ST. LOUIS MO  63103. UNITED STATES", "tel": ":  +1 314 771-5765", "fax": ":  +1 800 325-5052"}, "formula": ":  C12H19O3P", "mw": ":  242.25 g/mol", "ec": ":  223-180-4. No components need to be disclosed according to the applicable regulations.", "appearance": "Form: liquid. Color: colorless", "odor": "No data available", "pH": "No data available", "melting_point": "No data available. point/freezing point", "flash_point": "110 \u00b0C (230 \u00b0F) - closed cup", "evaporation_rate": "No data available", "flammability": "No data available. gas)", "vapor_pressure": "No data available", "vapor_density": "No data available", "density": "1.07 g/cm3 at 25 \u00b0C (77 \u00b0F) - lit.. Relative density. No data available", "water_solubility": "No data available", "partition_coefficient": "No data available. n-octanol/water", "autoignition": "No data available. temperature", "decomposition": "No data available. temperature", "viscosity": "No data available", "explosive_properties": "No data available", "oxidizing_properties": "No data available", "bulk_density": "No data available", "particle_size": "No data available", "statements": [{"code": "H302", "statement": "Harmful if swallowed.. Precautionary statement(s)"}, {"code": "P264", "statement": "Wash skin thoroughly after handling."}, {"code": "P270", "statement": "Do not eat, drink or smoke when using this product."}, {"code": "P301 + P312", "statement": "IF SWALLOWED: Call a POISON CENTER/doctor if you feel. unwell."}, {"code": "P330", "statement": "Rinse mouth."}, {"code": "P501", "statement": "Dispose of contents/ container to an approved waste disposal. plant."}], "canonical_smiles": "CCOP(=O)(CC1=CC=C(C=C1)C)OCC", "isomeric_smiles": "CCOP(=O)(CC1=CC=C(C=C1)C)OCC"}, {"id": 352, "product_number": "BP1233", "CAS_number": "75706-12-6", "product_name": "Leflunomide", "product_brand": "Supelco", "supplier": {"company": ":  Sigma-Aldrich Inc.", "location": "3050 SPRUCE ST. ST. LOUIS MO  63103. UNITED STATES", "tel": ":  +1 314 771-5765", "fax": ":  +1 800 325-5052"}, "formula": ":  C12H9F3N2O2", "mw": ":  270.2 g/mol", "ec": ":  616-254-6. TabulaTable(extraction_method=stream, page_number=2, top=528.0, bottom=598.0, left=80.0, right=558.0, width=478.0, height=70.0, data=\n+-----------------------------------------------------------------------------++-------------+\n|Component Classification                                                     ||Concentration|\n+-----------------------------------------------------------------------------++-------------+\n|5\u2010methyl\u2010N\u2010[4\u2010(trifluoromethyl)phenyl]\u20101,2\u2010oxazole\u20104\u2010carboxamide             ||             |\n+-----------------------------------------------------------------------------++-------------+\n|Acute Tox. 3; Skin Irrit. 2; Eye Irrit. 2A; STOT SE 3; H301, H315, H319, H335||<= 100 %     |\n+-----------------------------------------------------------------------------++-------------+\n, additional_ops=['strip_text', 'merge_rows', 'pull_down_to_empty'])", "appearance": "Form: solid", "odor": "No data available", "pH": "No data available", "melting_point": "No data available. point/freezing point", "flash_point": "()Not applicable", "evaporation_rate": "No data available", "flammability": "No data available", "vapor_pressure": "No data available", "vapor_density": "No data available", "density": "No data available", "water_solubility": "No data available", "partition_coefficient": "No data available", "autoignition": "No data available", "decomposition": "No data available", "viscosity": "No data available", "explosive_properties": "No data available", "oxidizing_properties": "No data available", "bulk_density": "No data available", "particle_size": "No data available", "statements": [{"code": "H302", "statement": "Harmful if swallowed.. Precautionary statement(s)"}, {"code": "P264", "statement": "Wash skin thoroughly after handling."}, {"code": "P270", "statement": "Do not eat, drink or smoke when using this product."}, {"code": "P301 + P312", "statement": "IF SWALLOWED: Call a POISON CENTER/doctor if you feel. unwell."}, {"code": "P330", "statement": "Rinse mouth."}, {"code": "P501", "statement": "Dispose of contents/ container to an approved waste disposal. plant."}], "canonical_smiles": "CC1=C(C=NO1)C(=O)NC2=CC=C(C=C2)C(F)(F)F", "isomeric_smiles": "CC1=C(C=NO1)C(=O)NC2=CC=C(C=C2)C(F)(F)F"}, {"id": 316, "product_number": "166391", "CAS_number": "3760-54-1", "product_name": "1-Formylpyrrolidine", "product_brand": "Aldrich", "supplier": {"company": ":  Sigma-Aldrich Inc.", "location": "3050 SPRUCE ST. ST. LOUIS MO  63103. UNITED STATES", "tel": ":  +1 314 771-5765", "fax": ":  +1 800 325-5052"}, "formula": ":  C5H9NO", "mw": ":  99.13 g/mol", "ec": ":  223-175-7. No components need to be disclosed according to the applicable regulations.", "appearance": "Form: clear, liquid. Color: light brown", "odor": "No data available", "pH": "No data available", "melting_point": "No data available. point/freezing point", "flash_point": "95 \u00b0C (203 \u00b0F) - closed cup", "evaporation_rate": "No data available", "flammability": "No data available. gas)", "vapor_pressure": "No data available", "vapor_density": "No data available", "density": "1.04 g/mL at 25 \u00b0C (77 \u00b0F). Relative density. No data available", "water_solubility": "No data available", "partition_coefficient": "No data available. n-octanol/water", "autoignition": "No data available. temperature", "decomposition": "No data available. temperature", "viscosity": "No data available", "explosive_properties": "No data available", "oxidizing_properties": "No data available", "bulk_density": "No data available", "particle_size": "No data available", "statements": [{"code": "H302", "statement": "Harmful if swallowed.. Precautionary statement(s)"}, {"code": "P264", "statement": "Wash skin thoroughly after handling."}, {"code": "P270", "statement": "Do not eat, drink or smoke when using this product."}, {"code": "P301 + P312", "statement": "IF SWALLOWED: Call a POISON CENTER/doctor if you feel. unwell."}, {"code": "P330", "statement": "Rinse mouth."}, {"code": "P501", "statement": "Dispose of contents/ container to an approved waste disposal. plant."}], "canonical_smiles": "C1CCN(C1)C=O", "isomeric_smiles": "C1CCN(C1)C=O"}]