[{"id": 2124, "product_number": "546879", "CAS_number": "76823-93-3", "product_name": "2-[4-(2-Cyanoethylthio)methyl]thiazolyl", "product_brand": "Aldrich", "supplier": {"company": ":  Sigma-Aldrich Inc.", "location": "3050 SPRUCE ST. ST. LOUIS MO  63103. UNITED STATES", "tel": ":  +1 314 771-5765", "fax": ":  +1 800 325-5052"}, "formula": ":  C8H11N5S2", "mw": ":  241.34 g/mol", "ec": ":  403-710-2", "appearance": "Form: crystalline. Color: light yellow", "odor": "No data available", "pH": "No data available", "melting_point": "Melting point/range: 128 - 132 \u00b0C (262 - 270 \u00b0F) - lit.. point/freezing point", "flash_point": "()No data available", "evaporation_rate": "No data available", "flammability": "No data available. gas)", "vapor_pressure": "No data available", "vapor_density": "No data available", "density": "No data available. Relative density. No data available", "water_solubility": "No data available", "partition_coefficient": "log Pow: 0.4. n-octanol/water", "autoignition": "No data available. temperature", "decomposition": "No data available. temperature", "viscosity": "No data available", "explosive_properties": "No data available", "oxidizing_properties": "No data available", "bulk_density": "No data available", "particle_size": "No data available", "statements": [{"code": "H302", "statement": "Harmful if swallowed."}, {"code": "H317", "statement": "May cause an allergic skin reaction.. Precautionary statement(s)"}, {"code": "P261", "statement": "Avoid breathing dust/ fume/ gas/ mist/ vapors/ spray."}, {"code": "P264", "statement": "Wash skin thoroughly after handling."}, {"code": "P270", "statement": "Do not eat, drink or smoke when using this product."}, {"code": "P272", "statement": "Contaminated work clothing must not be allowed out of the. workplace."}, {"code": "P280", "statement": "Wear protective gloves."}, {"code": "P301 + P312 + P330", "statement": "IF SWALLOWED: Call a POISON CENTER/ doctor if you feel. unwell. Rinse mouth."}, {"code": "P302 + P352", "statement": "IF ON SKIN: Wash with plenty of soap and water."}, {"code": "P333 + P313", "statement": "If skin irritation or rash occurs: Get medical advice/ attention."}, {"code": "P363", "statement": "Wash contaminated clothing before reuse."}, {"code": "P501", "statement": "Dispose of contents/ container to an approved waste disposal. plant."}, {"code": "H315", "statement": "Causes skin irritation.. Precautionary statement(s)"}, {"code": "P264", "statement": "Wash skin thoroughly after handling."}, {"code": "P280", "statement": "Wear protective gloves."}, {"code": "P302 + P352", "statement": "IF ON SKIN: Wash with plenty of soap and water."}, {"code": "P332 + P313", "statement": "If skin irritation occurs: Get medical advice/ attention."}, {"code": "P362", "statement": "Take off contaminated clothing and wash before reuse."}, {"code": "H302", "statement": "Harmful if swallowed."}, {"code": "H318", "statement": "Causes serious eye damage."}, {"code": "H402", "statement": "Harmful to aquatic life.. Precautionary statement(s)"}, {"code": "P264", "statement": "Wash skin thoroughly after handling."}, {"code": "P270", "statement": "Do not eat, drink or smoke when using this product."}, {"code": "P273", "statement": "Avoid release to the environment."}, {"code": "P280", "statement": "Wear eye protection/ face protection."}, {"code": "P301 + P312 + P330", "statement": "IF SWALLOWED: Call a POISON CENTER/ doctor if you feel. unwell. Rinse mouth."}, {"code": "P305 + P351 + P338 +", "statement": "IF IN EYES: Rinse cautiously with water for several minutes."}, {"code": "P310", "statement": "Remove contact lenses, if present and easy to do. Continue. rinsing. Immediately call a POISON CENTER/ doctor."}, {"code": "P501", "statement": "Dispose of contents/ container to an approved waste disposal. plant."}, {"code": "H302 + H332", "statement": "Harmful if swallowed or if inhaled."}, {"code": "H318", "statement": "Causes serious eye damage."}, {"code": "H373", "statement": "May cause damage to organs (Respiratory Tract) through. prolonged or repeated exposure.. Precautionary statement(s)"}, {"code": "P260", "statement": "Do not breathe dust/ fume/ gas/ mist/ vapors/ spray."}, {"code": "P264", "statement": "Wash skin thoroughly after handling."}, {"code": "P270", "statement": "Do not eat, drink or smoke when using this product."}, {"code": "P271", "statement": "Use only outdoors or in a well-ventilated area."}, {"code": "P280", "statement": "Wear eye protection/ face protection."}, {"code": "P301 + P312 + P330", "statement": "IF SWALLOWED: Call a POISON CENTER/ doctor if you feel. unwell. Rinse mouth."}, {"code": "P304 + P340 + P312", "statement": "IF INHALED: Remove person to fresh air and keep comfortable. for breathing. Call a POISON CENTER/ doctor if you feel unwell."}, {"code": "P305 + P351 + P338 +", "statement": "IF IN EYES: Rinse cautiously with water for several minutes."}, {"code": "P310", "statement": "Remove contact lenses, if present and easy to do. Continue. rinsing. Immediately call a POISON CENTER/ doctor."}, {"code": "P314", "statement": "Get medical advice/ attention if you feel unwell."}, {"code": "P501", "statement": "Dispose of contents/ container to an approved waste disposal. plant."}], "canonical_smiles": "No data available", "isomeric_smiles": "No data available"}, {"id": 656, "product_number": "A21401", "CAS_number": "1122-54-9", "product_name": "4-Acetylpyridine", "product_brand": "Aldrich", "supplier": {"company": ":  Sigma-Aldrich Inc.", "location": "3050 SPRUCE ST. ST. LOUIS MO  63103. UNITED STATES", "tel": ":  +1 314 771-5765", "fax": ":  +1 800 325-5052"}, "formula": ":  C7H7NO", "mw": ":  121.14 g/mol", "ec": ":  214-350-9. TabulaTable(extraction_method=stream, page_number=2, top=258.0, bottom=303.0, left=80.0, right=558.0, width=478.0, height=45.0, data=\n+-----------------------+-------------------+-------------+\n|Component              |Classification     |Concentration|\n+-----------------------+-------------------+-------------+\n|methyl 4-pyridyl ketone|                   |             |\n+-----------------------+-------------------+-------------+\n|methyl 4-pyridyl ketone|Skin Irrit. 2; H315|<= 100 %     |\n+-----------------------+-------------------+-------------+\n, additional_ops=['strip_text', 'merge_rows', 'pull_down_to_empty'])", "appearance": "Form: liquid", "odor": "No data available", "pH": "No data available", "melting_point": "Melting point/range: 13 - 16 \u00b0C (55 - 61 \u00b0F) - lit.. point/freezing point", "flash_point": "104 \u00b0C (219 \u00b0F) - c.c.", "evaporation_rate": "No data available", "flammability": "No data available. gas)", "vapor_pressure": "No data available", "vapor_density": "No data available", "density": "No data available", "water_solubility": "No data available", "partition_coefficient": "No data available. n-octanol/water", "autoignition": "No data available. temperature", "decomposition": "No data available. temperature", "viscosity": "No data available", "explosive_properties": "No data available", "oxidizing_properties": "No data available", "bulk_density": "No data available", "particle_size": "No data available", "statements": [{"code": "H302", "statement": "Harmful if swallowed."}, {"code": "H317", "statement": "May cause an allergic skin reaction.. Precautionary statement(s)"}, {"code": "P261", "statement": "Avoid breathing dust/ fume/ gas/ mist/ vapors/ spray."}, {"code": "P264", "statement": "Wash skin thoroughly after handling."}, {"code": "P270", "statement": "Do not eat, drink or smoke when using this product."}, {"code": "P272", "statement": "Contaminated work clothing must not be allowed out of the. workplace."}, {"code": "P280", "statement": "Wear protective gloves."}, {"code": "P301 + P312 + P330", "statement": "IF SWALLOWED: Call a POISON CENTER/ doctor if you feel. unwell. Rinse mouth."}, {"code": "P302 + P352", "statement": "IF ON SKIN: Wash with plenty of soap and water."}, {"code": "P333 + P313", "statement": "If skin irritation or rash occurs: Get medical advice/ attention."}, {"code": "P363", "statement": "Wash contaminated clothing before reuse."}, {"code": "P501", "statement": "Dispose of contents/ container to an approved waste disposal. plant."}, {"code": "H315", "statement": "Causes skin irritation.. Precautionary statement(s)"}, {"code": "P264", "statement": "Wash skin thoroughly after handling."}, {"code": "P280", "statement": "Wear protective gloves."}, {"code": "P302 + P352", "statement": "IF ON SKIN: Wash with plenty of soap and water."}, {"code": "P332 + P313", "statement": "If skin irritation occurs: Get medical advice/ attention."}, {"code": "P362", "statement": "Take off contaminated clothing and wash before reuse."}, {"code": "H302", "statement": "Harmful if swallowed."}, {"code": "H318", "statement": "Causes serious eye damage."}, {"code": "H402", "statement": "Harmful to aquatic life.. Precautionary statement(s)"}, {"code": "P264", "statement": "Wash skin thoroughly after handling."}, {"code": "P270", "statement": "Do not eat, drink or smoke when using this product."}, {"code": "P273", "statement": "Avoid release to the environment."}, {"code": "P280", "statement": "Wear eye protection/ face protection."}, {"code": "P301 + P312 + P330", "statement": "IF SWALLOWED: Call a POISON CENTER/ doctor if you feel. unwell. Rinse mouth."}, {"code": "P305 + P351 + P338 +", "statement": "IF IN EYES: Rinse cautiously with water for several minutes."}, {"code": "P310", "statement": "Remove contact lenses, if present and easy to do. Continue. rinsing. Immediately call a POISON CENTER/ doctor."}, {"code": "P501", "statement": "Dispose of contents/ container to an approved waste disposal. plant."}, {"code": "H302 + H332", "statement": "Harmful if swallowed or if inhaled."}, {"code": "H318", "statement": "Causes serious eye damage."}, {"code": "H373", "statement": "May cause damage to organs (Respiratory Tract) through. prolonged or repeated exposure.. Precautionary statement(s)"}, {"code": "P260", "statement": "Do not breathe dust/ fume/ gas/ mist/ vapors/ spray."}, {"code": "P264", "statement": "Wash skin thoroughly after handling."}, {"code": "P270", "statement": "Do not eat, drink or smoke when using this product."}, {"code": "P271", "statement": "Use only outdoors or in a well-ventilated area."}, {"code": "P280", "statement": "Wear eye protection/ face protection."}, {"code": "P301 + P312 + P330", "statement": "IF SWALLOWED: Call a POISON CENTER/ doctor if you feel. unwell. Rinse mouth."}, {"code": "P304 + P340 + P312", "statement": "IF INHALED: Remove person to fresh air and keep comfortable. for breathing. Call a POISON CENTER/ doctor if you feel unwell."}, {"code": "P305 + P351 + P338 +", "statement": "IF IN EYES: Rinse cautiously with water for several minutes."}, {"code": "P310", "statement": "Remove contact lenses, if present and easy to do. Continue. rinsing. Immediately call a POISON CENTER/ doctor."}, {"code": "P314", "statement": "Get medical advice/ attention if you feel unwell."}, {"code": "P501", "statement": "Dispose of contents/ container to an approved waste disposal. plant."}], "canonical_smiles": "CC(=O)C1=CC=NC=C1", "isomeric_smiles": "CC(=O)C1=CC=NC=C1"}, {"id": 2078, "product_number": "PHR1434", "CAS_number": "7681-57-4", "product_name": "Sodium Metabisulfite", "product_brand": "Sigma-Aldrich", "supplier": {"company": ":  Sigma-Aldrich Inc.", "location": "3050 SPRUCE ST. ST. LOUIS MO  63103. UNITED STATES", "tel": ":  +1 314 771-5765", "fax": ":  +1 800 325-5052"}, "formula": ":  Na2O5S2", "mw": ":  190.11 g/mol", "ec": ":  231-673-0", "appearance": "Form: powder. Color: colorless", "odor": "No data available", "pH": "4.5 at 50 g/l at 20 \u00b0C (68 \u00b0F)", "melting_point": "Melting point/range: > 150 \u00b0C (> 302 \u00b0F) - Decomposition. point/freezing point", "flash_point": "()Not applicable", "evaporation_rate": "No data available", "flammability": "The product is not flammable. - Flammability (solids). gas)", "vapor_pressure": "No data available", "vapor_density": "No data available", "density": "2.36 g/cm3 at 20 \u00b0C (68 \u00b0F). Relative density. No data available", "water_solubility": "650 g/l at 20 \u00b0C (68 \u00b0F)", "partition_coefficient": "Not applicable for inorganic substances. n-octanol/water", "autoignition": "No data available. temperature", "decomposition": "No data available. temperature", "viscosity": "No data available", "explosive_properties": "No data available", "oxidizing_properties": "No data available", "bulk_density": "No data available", "particle_size": "No data available", "statements": [{"code": "H302", "statement": "Harmful if swallowed."}, {"code": "H317", "statement": "May cause an allergic skin reaction.. Precautionary statement(s)"}, {"code": "P261", "statement": "Avoid breathing dust/ fume/ gas/ mist/ vapors/ spray."}, {"code": "P264", "statement": "Wash skin thoroughly after handling."}, {"code": "P270", "statement": "Do not eat, drink or smoke when using this product."}, {"code": "P272", "statement": "Contaminated work clothing must not be allowed out of the. workplace."}, {"code": "P280", "statement": "Wear protective gloves."}, {"code": "P301 + P312 + P330", "statement": "IF SWALLOWED: Call a POISON CENTER/ doctor if you feel. unwell. Rinse mouth."}, {"code": "P302 + P352", "statement": "IF ON SKIN: Wash with plenty of soap and water."}, {"code": "P333 + P313", "statement": "If skin irritation or rash occurs: Get medical advice/ attention."}, {"code": "P363", "statement": "Wash contaminated clothing before reuse."}, {"code": "P501", "statement": "Dispose of contents/ container to an approved waste disposal. plant."}, {"code": "H315", "statement": "Causes skin irritation.. Precautionary statement(s)"}, {"code": "P264", "statement": "Wash skin thoroughly after handling."}, {"code": "P280", "statement": "Wear protective gloves."}, {"code": "P302 + P352", "statement": "IF ON SKIN: Wash with plenty of soap and water."}, {"code": "P332 + P313", "statement": "If skin irritation occurs: Get medical advice/ attention."}, {"code": "P362", "statement": "Take off contaminated clothing and wash before reuse."}, {"code": "H302", "statement": "Harmful if swallowed."}, {"code": "H318", "statement": "Causes serious eye damage."}, {"code": "H402", "statement": "Harmful to aquatic life.. Precautionary statement(s)"}, {"code": "P264", "statement": "Wash skin thoroughly after handling."}, {"code": "P270", "statement": "Do not eat, drink or smoke when using this product."}, {"code": "P273", "statement": "Avoid release to the environment."}, {"code": "P280", "statement": "Wear eye protection/ face protection."}, {"code": "P301 + P312 + P330", "statement": "IF SWALLOWED: Call a POISON CENTER/ doctor if you feel. unwell. Rinse mouth."}, {"code": "P305 + P351 + P338 +", "statement": "IF IN EYES: Rinse cautiously with water for several minutes."}, {"code": "P310", "statement": "Remove contact lenses, if present and easy to do. Continue. rinsing. Immediately call a POISON CENTER/ doctor."}, {"code": "P501", "statement": "Dispose of contents/ container to an approved waste disposal. plant."}, {"code": "H302 + H332", "statement": "Harmful if swallowed or if inhaled."}, {"code": "H318", "statement": "Causes serious eye damage."}, {"code": "H373", "statement": "May cause damage to organs (Respiratory Tract) through. prolonged or repeated exposure.. Precautionary statement(s)"}, {"code": "P260", "statement": "Do not breathe dust/ fume/ gas/ mist/ vapors/ spray."}, {"code": "P264", "statement": "Wash skin thoroughly after handling."}, {"code": "P270", "statement": "Do not eat, drink or smoke when using this product."}, {"code": "P271", "statement": "Use only outdoors or in a well-ventilated area."}, {"code": "P280", "statement": "Wear eye protection/ face protection."}, {"code": "P301 + P312 + P330", "statement": "IF SWALLOWED: Call a POISON CENTER/ doctor if you feel. unwell. Rinse mouth."}, {"code": "P304 + P340 + P312", "statement": "IF INHALED: Remove person to fresh air and keep comfortable. for breathing. Call a POISON CENTER/ doctor if you feel unwell."}, {"code": "P305 + P351 + P338 +", "statement": "IF IN EYES: Rinse cautiously with water for several minutes."}, {"code": "P310", "statement": "Remove contact lenses, if present and easy to do. Continue. rinsing. Immediately call a POISON CENTER/ doctor."}, {"code": "P314", "statement": "Get medical advice/ attention if you feel unwell."}, {"code": "P501", "statement": "Dispose of contents/ container to an approved waste disposal. plant."}], "canonical_smiles": "[O-]S(=O)S(=O)(=O)[O-].[Na+].[Na+]", "isomeric_smiles": "[O-]S(=O)S(=O)(=O)[O-].[Na+].[Na+]"}, {"id": 2096, "product_number": "PHR1703", "CAS_number": "7681-93-8", "product_name": "Natamycin", "product_brand": "Sigma-Aldrich", "supplier": {"company": ":  Sigma-Aldrich Inc.", "location": "3050 SPRUCE ST. ST. LOUIS MO  63103. UNITED STATES", "tel": ":  +1 314 771-5765", "fax": ":  +1 800 325-5052"}, "formula": "No data available", "mw": ":  665.73 g/mol", "ec": ":  231-683-5. No components need to be disclosed according to the applicable regulations.", "appearance": "Form: suspension. Color: white", "odor": "No data available", "pH": "No data available", "melting_point": "Melting point/range: 280 \u00b0C (536 \u00b0F). point/freezing point", "flash_point": "()No data available", "evaporation_rate": "No data available", "flammability": "No data available. gas)", "vapor_pressure": "No data available", "vapor_density": "No data available", "density": "No data available. Relative density. No data available", "water_solubility": "soluble", "partition_coefficient": "No data available. n-octanol/water", "autoignition": "No data available. temperature", "decomposition": "No data available. temperature", "viscosity": "No data available", "explosive_properties": "No data available", "oxidizing_properties": "No data available", "bulk_density": "No data available", "particle_size": "No data available", "statements": [{"code": "H302", "statement": "Harmful if swallowed."}, {"code": "H317", "statement": "May cause an allergic skin reaction.. Precautionary statement(s)"}, {"code": "P261", "statement": "Avoid breathing dust/ fume/ gas/ mist/ vapors/ spray."}, {"code": "P264", "statement": "Wash skin thoroughly after handling."}, {"code": "P270", "statement": "Do not eat, drink or smoke when using this product."}, {"code": "P272", "statement": "Contaminated work clothing must not be allowed out of the. workplace."}, {"code": "P280", "statement": "Wear protective gloves."}, {"code": "P301 + P312 + P330", "statement": "IF SWALLOWED: Call a POISON CENTER/ doctor if you feel. unwell. Rinse mouth."}, {"code": "P302 + P352", "statement": "IF ON SKIN: Wash with plenty of soap and water."}, {"code": "P333 + P313", "statement": "If skin irritation or rash occurs: Get medical advice/ attention."}, {"code": "P363", "statement": "Wash contaminated clothing before reuse."}, {"code": "P501", "statement": "Dispose of contents/ container to an approved waste disposal. plant."}, {"code": "H315", "statement": "Causes skin irritation.. Precautionary statement(s)"}, {"code": "P264", "statement": "Wash skin thoroughly after handling."}, {"code": "P280", "statement": "Wear protective gloves."}, {"code": "P302 + P352", "statement": "IF ON SKIN: Wash with plenty of soap and water."}, {"code": "P332 + P313", "statement": "If skin irritation occurs: Get medical advice/ attention."}, {"code": "P362", "statement": "Take off contaminated clothing and wash before reuse."}, {"code": "H302", "statement": "Harmful if swallowed."}, {"code": "H318", "statement": "Causes serious eye damage."}, {"code": "H402", "statement": "Harmful to aquatic life.. Precautionary statement(s)"}, {"code": "P264", "statement": "Wash skin thoroughly after handling."}, {"code": "P270", "statement": "Do not eat, drink or smoke when using this product."}, {"code": "P273", "statement": "Avoid release to the environment."}, {"code": "P280", "statement": "Wear eye protection/ face protection."}, {"code": "P301 + P312 + P330", "statement": "IF SWALLOWED: Call a POISON CENTER/ doctor if you feel. unwell. Rinse mouth."}, {"code": "P305 + P351 + P338 +", "statement": "IF IN EYES: Rinse cautiously with water for several minutes."}, {"code": "P310", "statement": "Remove contact lenses, if present and easy to do. Continue. rinsing. Immediately call a POISON CENTER/ doctor."}, {"code": "P501", "statement": "Dispose of contents/ container to an approved waste disposal. plant."}, {"code": "H302 + H332", "statement": "Harmful if swallowed or if inhaled."}, {"code": "H318", "statement": "Causes serious eye damage."}, {"code": "H373", "statement": "May cause damage to organs (Respiratory Tract) through. prolonged or repeated exposure.. Precautionary statement(s)"}, {"code": "P260", "statement": "Do not breathe dust/ fume/ gas/ mist/ vapors/ spray."}, {"code": "P264", "statement": "Wash skin thoroughly after handling."}, {"code": "P270", "statement": "Do not eat, drink or smoke when using this product."}, {"code": "P271", "statement": "Use only outdoors or in a well-ventilated area."}, {"code": "P280", "statement": "Wear eye protection/ face protection."}, {"code": "P301 + P312 + P330", "statement": "IF SWALLOWED: Call a POISON CENTER/ doctor if you feel. unwell. Rinse mouth."}, {"code": "P304 + P340 + P312", "statement": "IF INHALED: Remove person to fresh air and keep comfortable. for breathing. Call a POISON CENTER/ doctor if you feel unwell."}, {"code": "P305 + P351 + P338 +", "statement": "IF IN EYES: Rinse cautiously with water for several minutes."}, {"code": "P310", "statement": "Remove contact lenses, if present and easy to do. Continue. rinsing. Immediately call a POISON CENTER/ doctor."}, {"code": "P314", "statement": "Get medical advice/ attention if you feel unwell."}, {"code": "P501", "statement": "Dispose of contents/ container to an approved waste disposal. plant."}], "canonical_smiles": "CC1CC=CC=CC=CC=CC(CC2C(C(CC(O2)(CC(CC3C(O3)C=CC(=O)O1)O)O)O)C(=O)O)OC4C(C(C(C(O4)C)O)N)O", "isomeric_smiles": "C[C@@H]1C/C=C/C=C/C=C/C=C/[C@@H](C[C@H]2[C@@H]([C@H](C[C@](O2)(C[C@H](C[C@@H]3[C@H](O3)/C=C/C(=O)O1)O)O)O)C(=O)O)O[C@H]4[C@H]([C@H]([C@@H]([C@H](O4)C)O)N)O"}, {"id": 31062, "product_number": "40817", "CAS_number": "56144-12-8", "product_name": "6\u2032-Sialyl-D-lactose", "product_brand": "Sigma", "supplier": {"company": ":  Sigma-Aldrich Inc.", "location": "3050 SPRUCE ST. ST. LOUIS MO  63103. UNITED STATES", "tel": ":  +1 314 771-5765", "fax": ":  +1 800 325-5052"}, "formula": ":  C23H39NO19", "mw": ":  633.55 g/mol", "ec": "No data available", "appearance": "Form: crystalline. Color: white", "odor": "No data available", "pH": "No data available", "melting_point": "No data available. point/freezing point", "flash_point": "()No data available", "evaporation_rate": "No data available", "flammability": "No data available. gas)", "vapor_pressure": "No data available", "vapor_density": "No data available", "density": "No data available", "water_solubility": "No data available", "partition_coefficient": "No data available. n-octanol/water", "autoignition": "No data available. temperature", "decomposition": "No data available. temperature", "viscosity": "No data available", "explosive_properties": "No data available", "oxidizing_properties": "No data available", "bulk_density": "No data available", "particle_size": "No data available", "statements": [{"code": "H302", "statement": "Harmful if swallowed."}, {"code": "H317", "statement": "May cause an allergic skin reaction.. Precautionary statement(s)"}, {"code": "P261", "statement": "Avoid breathing dust/ fume/ gas/ mist/ vapors/ spray."}, {"code": "P264", "statement": "Wash skin thoroughly after handling."}, {"code": "P270", "statement": "Do not eat, drink or smoke when using this product."}, {"code": "P272", "statement": "Contaminated work clothing must not be allowed out of the. workplace."}, {"code": "P280", "statement": "Wear protective gloves."}, {"code": "P301 + P312 + P330", "statement": "IF SWALLOWED: Call a POISON CENTER/ doctor if you feel. unwell. Rinse mouth."}, {"code": "P302 + P352", "statement": "IF ON SKIN: Wash with plenty of soap and water."}, {"code": "P333 + P313", "statement": "If skin irritation or rash occurs: Get medical advice/ attention."}, {"code": "P363", "statement": "Wash contaminated clothing before reuse."}, {"code": "P501", "statement": "Dispose of contents/ container to an approved waste disposal. plant."}, {"code": "H315", "statement": "Causes skin irritation.. Precautionary statement(s)"}, {"code": "P264", "statement": "Wash skin thoroughly after handling."}, {"code": "P280", "statement": "Wear protective gloves."}, {"code": "P302 + P352", "statement": "IF ON SKIN: Wash with plenty of soap and water."}, {"code": "P332 + P313", "statement": "If skin irritation occurs: Get medical advice/ attention."}, {"code": "P362", "statement": "Take off contaminated clothing and wash before reuse."}, {"code": "H302", "statement": "Harmful if swallowed."}, {"code": "H318", "statement": "Causes serious eye damage."}, {"code": "H402", "statement": "Harmful to aquatic life.. Precautionary statement(s)"}, {"code": "P264", "statement": "Wash skin thoroughly after handling."}, {"code": "P270", "statement": "Do not eat, drink or smoke when using this product."}, {"code": "P273", "statement": "Avoid release to the environment."}, {"code": "P280", "statement": "Wear eye protection/ face protection."}, {"code": "P301 + P312 + P330", "statement": "IF SWALLOWED: Call a POISON CENTER/ doctor if you feel. unwell. Rinse mouth."}, {"code": "P305 + P351 + P338 +", "statement": "IF IN EYES: Rinse cautiously with water for several minutes."}, {"code": "P310", "statement": "Remove contact lenses, if present and easy to do. Continue. rinsing. Immediately call a POISON CENTER/ doctor."}, {"code": "P501", "statement": "Dispose of contents/ container to an approved waste disposal. plant."}, {"code": "H302 + H332", "statement": "Harmful if swallowed or if inhaled."}, {"code": "H318", "statement": "Causes serious eye damage."}, {"code": "H373", "statement": "May cause damage to organs (Respiratory Tract) through. prolonged or repeated exposure.. Precautionary statement(s)"}, {"code": "P260", "statement": "Do not breathe dust/ fume/ gas/ mist/ vapors/ spray."}, {"code": "P264", "statement": "Wash skin thoroughly after handling."}, {"code": "P270", "statement": "Do not eat, drink or smoke when using this product."}, {"code": "P271", "statement": "Use only outdoors or in a well-ventilated area."}, {"code": "P280", "statement": "Wear eye protection/ face protection."}, {"code": "P301 + P312 + P330", "statement": "IF SWALLOWED: Call a POISON CENTER/ doctor if you feel. unwell. Rinse mouth."}, {"code": "P304 + P340 + P312", "statement": "IF INHALED: Remove person to fresh air and keep comfortable. for breathing. Call a POISON CENTER/ doctor if you feel unwell."}, {"code": "P305 + P351 + P338 +", "statement": "IF IN EYES: Rinse cautiously with water for several minutes."}, {"code": "P310", "statement": "Remove contact lenses, if present and easy to do. Continue. rinsing. Immediately call a POISON CENTER/ doctor."}, {"code": "P314", "statement": "Get medical advice/ attention if you feel unwell."}, {"code": "P501", "statement": "Dispose of contents/ container to an approved waste disposal. plant."}], "canonical_smiles": "No data available", "isomeric_smiles": "No data available"}, {"id": 3118, "product_number": "03701", "CAS_number": "194491-31-1", "product_name": "Ethylenediaminetetraacetic acid tetrasodium", "product_brand": "Sigma-Aldrich", "supplier": {"company": ":  Sigma-Aldrich Inc.", "location": "3050 SPRUCE ST. ST. LOUIS MO  63103. UNITED STATES", "tel": ":  +1 314 771-5765", "fax": ":  +1 800 325-5052"}, "formula": ":  C10H12N2Na4O8 \u00b7 xH2O", "mw": ":  380.17 g/mol", "ec": ":  200-573-9", "appearance": "No data available", "odor": "No data available", "pH": "No data available", "melting_point": "No data available", "flash_point": "No data available", "evaporation_rate": "No data available", "flammability": "No data available", "vapor_pressure": "No data available", "vapor_density": "No data available", "density": "No data available", "water_solubility": "No data available", "partition_coefficient": "No data available", "autoignition": "No data available", "decomposition": "No data available", "viscosity": "No data available", "explosive_properties": "No data available", "oxidizing_properties": "No data available", "bulk_density": "No data available", "particle_size": "No data available", "statements": [{"code": "H302", "statement": "Harmful if swallowed."}, {"code": "H317", "statement": "May cause an allergic skin reaction.. Precautionary statement(s)"}, {"code": "P261", "statement": "Avoid breathing dust/ fume/ gas/ mist/ vapors/ spray."}, {"code": "P264", "statement": "Wash skin thoroughly after handling."}, {"code": "P270", "statement": "Do not eat, drink or smoke when using this product."}, {"code": "P272", "statement": "Contaminated work clothing must not be allowed out of the. workplace."}, {"code": "P280", "statement": "Wear protective gloves."}, {"code": "P301 + P312 + P330", "statement": "IF SWALLOWED: Call a POISON CENTER/ doctor if you feel. unwell. Rinse mouth."}, {"code": "P302 + P352", "statement": "IF ON SKIN: Wash with plenty of soap and water."}, {"code": "P333 + P313", "statement": "If skin irritation or rash occurs: Get medical advice/ attention."}, {"code": "P363", "statement": "Wash contaminated clothing before reuse."}, {"code": "P501", "statement": "Dispose of contents/ container to an approved waste disposal. plant."}, {"code": "H315", "statement": "Causes skin irritation.. Precautionary statement(s)"}, {"code": "P264", "statement": "Wash skin thoroughly after handling."}, {"code": "P280", "statement": "Wear protective gloves."}, {"code": "P302 + P352", "statement": "IF ON SKIN: Wash with plenty of soap and water."}, {"code": "P332 + P313", "statement": "If skin irritation occurs: Get medical advice/ attention."}, {"code": "P362", "statement": "Take off contaminated clothing and wash before reuse."}, {"code": "H302", "statement": "Harmful if swallowed."}, {"code": "H318", "statement": "Causes serious eye damage."}, {"code": "H402", "statement": "Harmful to aquatic life.. Precautionary statement(s)"}, {"code": "P264", "statement": "Wash skin thoroughly after handling."}, {"code": "P270", "statement": "Do not eat, drink or smoke when using this product."}, {"code": "P273", "statement": "Avoid release to the environment."}, {"code": "P280", "statement": "Wear eye protection/ face protection."}, {"code": "P301 + P312 + P330", "statement": "IF SWALLOWED: Call a POISON CENTER/ doctor if you feel. unwell. Rinse mouth."}, {"code": "P305 + P351 + P338 +", "statement": "IF IN EYES: Rinse cautiously with water for several minutes."}, {"code": "P310", "statement": "Remove contact lenses, if present and easy to do. Continue. rinsing. Immediately call a POISON CENTER/ doctor."}, {"code": "P501", "statement": "Dispose of contents/ container to an approved waste disposal. plant."}, {"code": "H302 + H332", "statement": "Harmful if swallowed or if inhaled."}, {"code": "H318", "statement": "Causes serious eye damage."}, {"code": "H373", "statement": "May cause damage to organs (Respiratory Tract) through. prolonged or repeated exposure.. Precautionary statement(s)"}, {"code": "P260", "statement": "Do not breathe dust/ fume/ gas/ mist/ vapors/ spray."}, {"code": "P264", "statement": "Wash skin thoroughly after handling."}, {"code": "P270", "statement": "Do not eat, drink or smoke when using this product."}, {"code": "P271", "statement": "Use only outdoors or in a well-ventilated area."}, {"code": "P280", "statement": "Wear eye protection/ face protection."}, {"code": "P301 + P312 + P330", "statement": "IF SWALLOWED: Call a POISON CENTER/ doctor if you feel. unwell. Rinse mouth."}, {"code": "P304 + P340 + P312", "statement": "IF INHALED: Remove person to fresh air and keep comfortable. for breathing. Call a POISON CENTER/ doctor if you feel unwell."}, {"code": "P305 + P351 + P338 +", "statement": "IF IN EYES: Rinse cautiously with water for several minutes."}, {"code": "P310", "statement": "Remove contact lenses, if present and easy to do. Continue. rinsing. Immediately call a POISON CENTER/ doctor."}, {"code": "P314", "statement": "Get medical advice/ attention if you feel unwell."}, {"code": "P501", "statement": "Dispose of contents/ container to an approved waste disposal. plant."}], "canonical_smiles": "No data available", "isomeric_smiles": "No data available"}]