[{"id": 596, "product_number": "518972", "CAS_number": "214907-24-1", "product_name": "TRANS-2-(4-FLUOROPHENYL)VINYLBORONIC", "product_brand": "Aldrich", "supplier": {"company": ":  Sigma-Aldrich Inc.", "location": "3050 SPRUCE ST. ST. LOUIS MO  63103. UNITED STATES", "tel": ":  +1 314 771-5765", "fax": ":  +1 800 325-5052"}, "formula": ":  C8H8BFO2", "mw": ":  165.96 g/mol", "ec": "No data available", "appearance": "Form: solid", "odor": "No data available", "pH": "No data available", "melting_point": "Melting point/range: 182 - 186 \u00b0C (360 - 367 \u00b0F) - lit.. point/freezing point", "flash_point": "()No data available", "evaporation_rate": "No data available", "flammability": "No data available. gas)", "vapor_pressure": "No data available", "vapor_density": "No data available", "density": "No data available. Relative density. No data available", "water_solubility": "No data available", "partition_coefficient": "No data available. n-octanol/water", "autoignition": "No data available. temperature", "decomposition": "No data available. temperature", "viscosity": "No data available", "explosive_properties": "No data available", "oxidizing_properties": "No data available", "bulk_density": "No data available", "particle_size": "No data available", "statements": [{"code": "H315", "statement": "Causes skin irritation."}, {"code": "H317", "statement": "May cause an allergic skin reaction."}], "canonical_smiles": "No data available", "isomeric_smiles": "No data available"}, {"id": 3472, "product_number": "PH017105", "CAS_number": "77314-78-4", "product_name": "2-(Butylamino)isonicotinic acid", "product_brand": "Aldrich", "supplier": {"company": ":  Sigma-Aldrich Inc.", "location": "3050 SPRUCE ST. ST. LOUIS MO  63103. UNITED STATES", "tel": ":  +1 314 771-5765", "fax": ":  +1 800 325-5052"}, "formula": "No data available", "mw": ":  194.23 g/mol", "ec": "No data available", "appearance": "Form: solid", "odor": "No data available", "pH": "No data available", "melting_point": "No data available. point/freezing point", "flash_point": "()Not applicable", "evaporation_rate": "No data available", "flammability": "No data available. gas)", "vapor_pressure": "No data available", "vapor_density": "No data available", "density": "No data available. Relative density. No data available", "water_solubility": "soluble", "partition_coefficient": "log Pow: 2.7 at 25 \u00b0C (77 \u00b0F) - Bioaccumulation is not expected.. n-octanol/water", "autoignition": "No data available. temperature", "decomposition": "No data available. temperature", "viscosity": "No data available", "explosive_properties": "No data available", "oxidizing_properties": "No data available", "bulk_density": "No data available", "particle_size": "No data available", "statements": [{"code": "H315", "statement": "Causes skin irritation."}, {"code": "H317", "statement": "May cause an allergic skin reaction."}], "canonical_smiles": "CCCCNC1=NC=CC(=C1)C(=O)O", "isomeric_smiles": "CCCCNC1=NC=CC(=C1)C(=O)O"}, {"id": 3499, "product_number": "329886", "CAS_number": "7732-18-5", "product_name": "Water-16O", "product_brand": "Aldrich", "supplier": {"company": ":  Sigma-Aldrich Inc.", "location": "3050 SPRUCE ST. ST. LOUIS MO  63103. UNITED STATES", "tel": ":  +1 314 771-5765", "fax": ":  +1 800 325-5052"}, "formula": ":  H2. 16O", "mw": ":  18.01 g/mol", "ec": ":  231-791-2. No components need to be disclosed according to the applicable regulations.", "appearance": "Form: liquid. Color: colorless", "odor": "No data available", "pH": "6.0 - 8.0 at 25 \u00b0C (77 \u00b0F)", "melting_point": "Melting point/range: 0 \u00b0C (32 \u00b0F). point/freezing point", "flash_point": "()Not applicable", "evaporation_rate": "No data available", "flammability": "No data available. gas)", "vapor_pressure": "No data available", "vapor_density": "No data available", "density": "No data available", "water_solubility": "completely miscible", "partition_coefficient": "No data available. n-octanol/water", "autoignition": "No data available. temperature", "decomposition": "No data available. temperature", "viscosity": "No data available", "explosive_properties": "No data available", "oxidizing_properties": "No data available", "bulk_density": "No data available", "particle_size": "No data available", "statements": [{"code": "H315", "statement": "Causes skin irritation."}, {"code": "H317", "statement": "May cause an allergic skin reaction."}], "canonical_smiles": "No data available", "isomeric_smiles": "No data available"}, {"id": 3927, "product_number": "W354503", "CAS_number": "2305-25-1", "product_name": "Ethyl 3-hydroxyhexanoate", "product_brand": "Aldrich", "supplier": {"company": ":  Sigma-Aldrich Inc.", "location": "3050 SPRUCE ST. ST. LOUIS MO  63103. UNITED STATES", "tel": ":  +1 314 771-5765", "fax": ":  +1 800 325-5052"}, "formula": ":  C8H16O3", "mw": ":  160.21 g/mol", "ec": ":  218-973-7. No components need to be disclosed according to the applicable regulations.", "appearance": "Form: liquid. Color: colorless", "odor": "No data available", "pH": "No data available", "melting_point": "No data available. point/freezing point", "flash_point": "94 \u00b0C (201 \u00b0F) - closed cup", "evaporation_rate": "No data available", "flammability": "No data available. gas)", "vapor_pressure": "No data available", "vapor_density": "No data available", "density": "0.974 g/cm3 at 25 \u00b0C (77 \u00b0F) - lit.. Relative density. No data available", "water_solubility": "No data available", "partition_coefficient": "No data available. n-octanol/water", "autoignition": "No data available. temperature", "decomposition": "No data available. temperature", "viscosity": "No data available", "explosive_properties": "No data available", "oxidizing_properties": "No data available", "bulk_density": "No data available", "particle_size": "No data available", "statements": [{"code": "H315", "statement": "Causes skin irritation."}, {"code": "H317", "statement": "May cause an allergic skin reaction."}], "canonical_smiles": "CCCC(CC(=O)OCC)O", "isomeric_smiles": "CCCC(CC(=O)OCC)O"}, {"id": 39524, "product_number": "GF46748144", "CAS_number": "7440-02-0", "product_name": "Nickel", "product_brand": "Aldrich", "supplier": {"company": ":  Sigma-Aldrich Inc.", "location": "3050 SPRUCE ST. ST. LOUIS MO  63103. UNITED STATES", "tel": ":  +1 314 771-5765", "fax": ":  +1 800 325-5052"}, "formula": "No data available", "mw": ":  58.69 g/mol", "ec": "No data available", "appearance": "Form: solid", "odor": "No data available", "pH": "No data available", "melting_point": "No data available", "flash_point": "No data available", "evaporation_rate": "No data available", "flammability": "No data available", "vapor_pressure": "No data available", "vapor_density": "No data available", "density": "No data available", "water_solubility": "No data available", "partition_coefficient": "No data available", "autoignition": "No data available", "decomposition": "No data available", "viscosity": "No data available", "explosive_properties": "No data available", "oxidizing_properties": "No data available", "bulk_density": "No data available", "particle_size": "No data available", "statements": [{"code": "H315", "statement": "Causes skin irritation."}, {"code": "H317", "statement": "May cause an allergic skin reaction."}], "canonical_smiles": "[Ni]", "isomeric_smiles": "[Ni]"}, {"id": 43880, "product_number": "524611M", "CAS_number": "371942-69-7", "product_name": "PIKfyve Inhibitor", "product_brand": "Millipore", "supplier": {"company": ":  Sigma-Aldrich Inc.", "location": "3050 SPRUCE ST. ST. LOUIS MO  63103. UNITED STATES", "tel": ":  +1 314 771-5765", "fax": ":  +1 800 325-5052"}, "formula": "No data available", "mw": ":  467.48 g/mol", "ec": "No data available", "appearance": "Form: solid", "odor": "No data available", "pH": "No data available", "melting_point": "No data available. point/freezing point", "flash_point": "()Not applicable", "evaporation_rate": "No data available", "flammability": "No data available. gas)", "vapor_pressure": "No data available", "vapor_density": "No data available", "density": "No data available", "water_solubility": "No data available", "partition_coefficient": "No data available. n-octanol/water", "autoignition": "No data available. temperature", "decomposition": "No data available. temperature", "viscosity": "No data available", "explosive_properties": "No data available", "oxidizing_properties": "No data available", "bulk_density": "No data available", "particle_size": "No data available", "statements": [{"code": "H315", "statement": "Causes skin irritation."}, {"code": "H317", "statement": "May cause an allergic skin reaction."}], "canonical_smiles": "No data available", "isomeric_smiles": "No data available"}]