[{"id": 154, "product_number": "28690", "CAS_number": "3779-29-1", "product_name": "Diethyl cyclobutane-1,1-dicarboxylate", "product_brand": "Aldrich", "supplier": {"company": ":  Sigma-Aldrich Inc.", "location": "3050 SPRUCE ST. ST. LOUIS MO  63103. UNITED STATES", "tel": ":  +1 314 771-5765", "fax": ":  +1 800 325-5052"}, "formula": ":  C10H16O4", "mw": ":  200.23 g/mol", "ec": ":  223-239-4. TabulaTable(extraction_method=stream, page_number=2, top=255.0, bottom=300.0, left=80.0, right=558.0, width=478.0, height=45.0, data=\n+------------------------------------+------------------+-------------+\n|Component                           |Classification    |Concentration|\n+------------------------------------+------------------+-------------+\n|Diethyl 1,1-cyclobutanedicarboxylate|                  |             |\n+------------------------------------+------------------+-------------+\n|Diethyl 1,1-cyclobutanedicarboxylate|Flam. Liq. 4; H227|<= 100 %     |\n+------------------------------------+------------------+-------------+\n, additional_ops=['strip_text', 'merge_rows', 'pull_down_to_empty'])", "appearance": "Form: clear, liquid. Color: colorless", "odor": "No data available", "pH": "No data available", "melting_point": "No data available. point/freezing point", "flash_point": "89 \u00b0C (192 \u00b0F) - closed cup", "evaporation_rate": "No data available", "flammability": "No data available. gas)", "vapor_pressure": "No data available", "vapor_density": "No data available", "density": "1.05 g/mL at 20 \u00b0C (68 \u00b0F) - lit.. Relative density. No data available", "water_solubility": "No data available", "partition_coefficient": "No data available. n-octanol/water", "autoignition": "No data available. temperature", "decomposition": "No data available. temperature", "viscosity": "No data available", "explosive_properties": "No data available", "oxidizing_properties": "No data available", "bulk_density": "No data available", "particle_size": "No data available", "statements": [{"code": "H227", "statement": "Combustible liquid.. Precautionary statement(s)"}, {"code": "P210", "statement": "Keep away from heat/ sparks/ open flames/ hot surfaces. No. smoking."}, {"code": "P280", "statement": "Wear protective gloves/ eye protection/ face protection."}, {"code": "P370 + P378", "statement": "In case of fire: Use dry sand, dry chemical or alcohol-resistant. foam for extinction."}, {"code": "P403 + P235", "statement": "Store in a well-ventilated place. Keep cool."}, {"code": "P501", "statement": "Dispose of contents/ container to an approved waste disposal. plant."}, {"code": "H302", "statement": "Harmful if swallowed."}, {"code": "H319", "statement": "Causes serious eye irritation.. Precautionary statement(s)"}, {"code": "P264", "statement": "Wash skin thoroughly after handling."}, {"code": "P270", "statement": "Do not eat, drink or smoke when using this product."}, {"code": "P280", "statement": "Wear eye protection/ face protection."}, {"code": "P301 + P312 + P330", "statement": "IF SWALLOWED: Call a POISON CENTER/doctor if you feel. unwell. Rinse mouth."}, {"code": "P305 + P351 + P338", "statement": "IF IN EYES: Rinse cautiously with water for several minutes.. Remove contact lenses, if present and easy to do. Continue. rinsing."}, {"code": "P337 + P313", "statement": "If eye irritation persists: Get medical advice/ attention."}, {"code": "P501", "statement": "Dispose of contents/ container to an approved waste disposal. plant."}], "canonical_smiles": "CCOC(=O)C1(CCC1)C(=O)OCC", "isomeric_smiles": "CCOC(=O)C1(CCC1)C(=O)OCC"}, {"id": 157, "product_number": "PH009909", "CAS_number": "3780-33-4", "product_name": "2,2-Dimethyl-Chroman-4-One", "product_brand": "Aldrich", "supplier": {"company": ":  Sigma-Aldrich Inc.", "location": "3050 SPRUCE ST. ST. LOUIS MO  63103. UNITED STATES", "tel": ":  +1 314 771-5765", "fax": ":  +1 800 325-5052"}, "formula": ":  C11H12O2", "mw": ":  176.22 g/mol", "ec": "No data available", "appearance": "No data available", "odor": "No data available", "pH": "No data available", "melting_point": "No data available", "flash_point": "No data available", "evaporation_rate": "No data available", "flammability": "No data available", "vapor_pressure": "No data available", "vapor_density": "No data available", "density": "No data available", "water_solubility": "No data available", "partition_coefficient": "No data available", "autoignition": "No data available", "decomposition": "No data available", "viscosity": "No data available", "explosive_properties": "No data available", "oxidizing_properties": "No data available", "bulk_density": "No data available", "particle_size": "No data available", "statements": [{"code": "H227", "statement": "Combustible liquid.. Precautionary statement(s)"}, {"code": "P210", "statement": "Keep away from heat/ sparks/ open flames/ hot surfaces. No. smoking."}, {"code": "P280", "statement": "Wear protective gloves/ eye protection/ face protection."}, {"code": "P370 + P378", "statement": "In case of fire: Use dry sand, dry chemical or alcohol-resistant. foam for extinction."}, {"code": "P403 + P235", "statement": "Store in a well-ventilated place. Keep cool."}, {"code": "P501", "statement": "Dispose of contents/ container to an approved waste disposal. plant."}, {"code": "H302", "statement": "Harmful if swallowed."}, {"code": "H319", "statement": "Causes serious eye irritation.. Precautionary statement(s)"}, {"code": "P264", "statement": "Wash skin thoroughly after handling."}, {"code": "P270", "statement": "Do not eat, drink or smoke when using this product."}, {"code": "P280", "statement": "Wear eye protection/ face protection."}, {"code": "P301 + P312 + P330", "statement": "IF SWALLOWED: Call a POISON CENTER/doctor if you feel. unwell. Rinse mouth."}, {"code": "P305 + P351 + P338", "statement": "IF IN EYES: Rinse cautiously with water for several minutes.. Remove contact lenses, if present and easy to do. Continue. rinsing."}, {"code": "P337 + P313", "statement": "If eye irritation persists: Get medical advice/ attention."}, {"code": "P501", "statement": "Dispose of contents/ container to an approved waste disposal. plant."}], "canonical_smiles": "CC1(CC(=O)C2=CC=CC=C2O1)C", "isomeric_smiles": "CC1(CC(=O)C2=CC=CC=C2O1)C"}, {"id": 149, "product_number": "483818", "CAS_number": "37784-17-1", "product_name": "N-Boc-D-proline", "product_brand": "Aldrich", "supplier": {"company": ":  Sigma-Aldrich Inc.", "location": "3050 SPRUCE ST. ST. LOUIS MO  63103. UNITED STATES", "tel": ":  +1 314 771-5765", "fax": ":  +1 800 325-5052"}, "formula": ":  C10H17NO4", "mw": ":  215.25 g/mol", "ec": "No data available", "appearance": "Form: powder. Color: white", "odor": "No data available", "pH": "No data available", "melting_point": "Melting point/range: 134 - 137 \u00b0C (273 - 279 \u00b0F) - lit.. point/freezing point", "flash_point": "()No data available", "evaporation_rate": "No data available", "flammability": "No data available. gas)", "vapor_pressure": "No data available", "vapor_density": "No data available", "density": "No data available. Relative density. No data available", "water_solubility": "No data available", "partition_coefficient": "No data available. n-octanol/water", "autoignition": "No data available. temperature", "decomposition": "No data available. temperature", "viscosity": "No data available", "explosive_properties": "No data available", "oxidizing_properties": "No data available", "bulk_density": "No data available", "particle_size": "No data available", "statements": [{"code": "H227", "statement": "Combustible liquid.. Precautionary statement(s)"}, {"code": "P210", "statement": "Keep away from heat/ sparks/ open flames/ hot surfaces. No. smoking."}, {"code": "P280", "statement": "Wear protective gloves/ eye protection/ face protection."}, {"code": "P370 + P378", "statement": "In case of fire: Use dry sand, dry chemical or alcohol-resistant. foam for extinction."}, {"code": "P403 + P235", "statement": "Store in a well-ventilated place. Keep cool."}, {"code": "P501", "statement": "Dispose of contents/ container to an approved waste disposal. plant."}, {"code": "H302", "statement": "Harmful if swallowed."}, {"code": "H319", "statement": "Causes serious eye irritation.. Precautionary statement(s)"}, {"code": "P264", "statement": "Wash skin thoroughly after handling."}, {"code": "P270", "statement": "Do not eat, drink or smoke when using this product."}, {"code": "P280", "statement": "Wear eye protection/ face protection."}, {"code": "P301 + P312 + P330", "statement": "IF SWALLOWED: Call a POISON CENTER/doctor if you feel. unwell. Rinse mouth."}, {"code": "P305 + P351 + P338", "statement": "IF IN EYES: Rinse cautiously with water for several minutes.. Remove contact lenses, if present and easy to do. Continue. rinsing."}, {"code": "P337 + P313", "statement": "If eye irritation persists: Get medical advice/ attention."}, {"code": "P501", "statement": "Dispose of contents/ container to an approved waste disposal. plant."}], "canonical_smiles": "CC(C)(C)OC(=O)N1CCCC1C(=O)O", "isomeric_smiles": "CC(C)(C)OC(=O)N1CCC[C@@H]1C(=O)O"}, {"id": 20521, "product_number": "30020", "CAS_number": "68-41-7", "product_name": "D-Cycloserine", "product_brand": "Sigma", "supplier": {"company": ":  Sigma-Aldrich Inc.", "location": "3050 SPRUCE ST. ST. LOUIS MO  63103. UNITED STATES", "tel": ":  +1 314 771-5765", "fax": ":  +1 800 325-5052"}, "formula": ":  C3H6N2O2", "mw": ":  102.09 g/mol", "ec": ":  200-688-4. No components need to be disclosed according to the applicable regulations.", "appearance": "Form: powder. Color: white", "odor": "No data available", "pH": "No data available", "melting_point": "Melting point/range: 147 \u00b0C (297 \u00b0F) - dec.. point/freezing point", "flash_point": "()No data available", "evaporation_rate": "No data available", "flammability": "gas)", "vapor_pressure": "No data available", "vapor_density": "No data available", "density": "No data available", "water_solubility": "No data available", "partition_coefficient": "No data available. n-octanol/water", "autoignition": "No data available. temperature", "decomposition": "No data available. temperature", "viscosity": "No data available", "explosive_properties": "No data available", "oxidizing_properties": "No data available", "bulk_density": "No data available", "particle_size": "No data available", "statements": [{"code": "H227", "statement": "Combustible liquid.. Precautionary statement(s)"}, {"code": "P210", "statement": "Keep away from heat/ sparks/ open flames/ hot surfaces. No. smoking."}, {"code": "P280", "statement": "Wear protective gloves/ eye protection/ face protection."}, {"code": "P370 + P378", "statement": "In case of fire: Use dry sand, dry chemical or alcohol-resistant. foam for extinction."}, {"code": "P403 + P235", "statement": "Store in a well-ventilated place. Keep cool."}, {"code": "P501", "statement": "Dispose of contents/ container to an approved waste disposal. plant."}, {"code": "H302", "statement": "Harmful if swallowed."}, {"code": "H319", "statement": "Causes serious eye irritation.. Precautionary statement(s)"}, {"code": "P264", "statement": "Wash skin thoroughly after handling."}, {"code": "P270", "statement": "Do not eat, drink or smoke when using this product."}, {"code": "P280", "statement": "Wear eye protection/ face protection."}, {"code": "P301 + P312 + P330", "statement": "IF SWALLOWED: Call a POISON CENTER/doctor if you feel. unwell. Rinse mouth."}, {"code": "P305 + P351 + P338", "statement": "IF IN EYES: Rinse cautiously with water for several minutes.. Remove contact lenses, if present and easy to do. Continue. rinsing."}, {"code": "P337 + P313", "statement": "If eye irritation persists: Get medical advice/ attention."}, {"code": "P501", "statement": "Dispose of contents/ container to an approved waste disposal. plant."}], "canonical_smiles": "C1C(C(=O)NO1)N", "isomeric_smiles": "C1[C@H](C(=O)NO1)N"}, {"id": 23350, "product_number": "570443", "CAS_number": "10462-94-9", "product_name": "Disperse Red 13 acrylate", "product_brand": "Aldrich", "supplier": {"company": ":  Sigma-Aldrich Inc.", "location": "3050 SPRUCE ST. ST. LOUIS MO  63103. UNITED STATES", "tel": ":  +1 314 771-5765", "fax": ":  +1 800 325-5052"}, "formula": ":  C19H19ClN4O4", "mw": ":  402.83 g/mol", "ec": "No data available", "appearance": "Form: solid", "odor": "No data available", "pH": "No data available", "melting_point": "Melting point/range: 74 - 79 \u00b0C (165 - 174 \u00b0F). point/freezing point", "flash_point": "()No data available", "evaporation_rate": "No data available", "flammability": "No data available. gas)", "vapor_pressure": "No data available", "vapor_density": "No data available", "density": "No data available", "water_solubility": "No data available", "partition_coefficient": "No data available. n-octanol/water", "autoignition": "No data available", "decomposition": "No data available. temperature", "viscosity": "No data available", "explosive_properties": "No data available", "oxidizing_properties": "No data available", "bulk_density": "No data available", "particle_size": "No data available", "statements": [{"code": "H227", "statement": "Combustible liquid.. Precautionary statement(s)"}, {"code": "P210", "statement": "Keep away from heat/ sparks/ open flames/ hot surfaces. No. smoking."}, {"code": "P280", "statement": "Wear protective gloves/ eye protection/ face protection."}, {"code": "P370 + P378", "statement": "In case of fire: Use dry sand, dry chemical or alcohol-resistant. foam for extinction."}, {"code": "P403 + P235", "statement": "Store in a well-ventilated place. Keep cool."}, {"code": "P501", "statement": "Dispose of contents/ container to an approved waste disposal. plant."}, {"code": "H302", "statement": "Harmful if swallowed."}, {"code": "H319", "statement": "Causes serious eye irritation.. Precautionary statement(s)"}, {"code": "P264", "statement": "Wash skin thoroughly after handling."}, {"code": "P270", "statement": "Do not eat, drink or smoke when using this product."}, {"code": "P280", "statement": "Wear eye protection/ face protection."}, {"code": "P301 + P312 + P330", "statement": "IF SWALLOWED: Call a POISON CENTER/doctor if you feel. unwell. Rinse mouth."}, {"code": "P305 + P351 + P338", "statement": "IF IN EYES: Rinse cautiously with water for several minutes.. Remove contact lenses, if present and easy to do. Continue. rinsing."}, {"code": "P337 + P313", "statement": "If eye irritation persists: Get medical advice/ attention."}, {"code": "P501", "statement": "Dispose of contents/ container to an approved waste disposal. plant."}], "canonical_smiles": "CCN(CCOC(=O)C=C)C1=CC=C(C=C1)N=NC2=C(C=C(C=C2)[N+](=O)[O-])Cl", "isomeric_smiles": "CCN(CCOC(=O)C=C)C1=CC=C(C=C1)N=NC2=C(C=C(C=C2)[N+](=O)[O-])Cl"}, {"id": 15157, "product_number": "732818", "CAS_number": "168759-60-2", "product_name": "7-Bromochromone", "product_brand": "Aldrich", "supplier": {"company": ":  Sigma-Aldrich Inc.", "location": "3050 SPRUCE ST. ST. LOUIS MO  63103. UNITED STATES", "tel": ":  +1 314 771-5765", "fax": ":  +1 800 325-5052"}, "formula": ":  C9H5BrO2", "mw": ":  225.04 g/mol", "ec": "No data available", "appearance": "Form: solid", "odor": "No data available", "pH": "No data available", "melting_point": "154 - 159 \u00b0C (309 - 318 \u00b0F). point/freezing point", "flash_point": "()No data available", "evaporation_rate": "No data available", "flammability": "No data available. gas)", "vapor_pressure": "No data available", "vapor_density": "No data available", "density": "No data available", "water_solubility": "No data available", "partition_coefficient": "log Pow: 2.191. n-octanol/water", "autoignition": "No data available", "decomposition": "No data available. temperature", "viscosity": "No data available", "explosive_properties": "No data available", "oxidizing_properties": "No data available", "bulk_density": "No data available", "particle_size": "No data available", "statements": [{"code": "H227", "statement": "Combustible liquid.. Precautionary statement(s)"}, {"code": "P210", "statement": "Keep away from heat/ sparks/ open flames/ hot surfaces. No. smoking."}, {"code": "P280", "statement": "Wear protective gloves/ eye protection/ face protection."}, {"code": "P370 + P378", "statement": "In case of fire: Use dry sand, dry chemical or alcohol-resistant. foam for extinction."}, {"code": "P403 + P235", "statement": "Store in a well-ventilated place. Keep cool."}, {"code": "P501", "statement": "Dispose of contents/ container to an approved waste disposal. plant."}, {"code": "H302", "statement": "Harmful if swallowed."}, {"code": "H319", "statement": "Causes serious eye irritation.. Precautionary statement(s)"}, {"code": "P264", "statement": "Wash skin thoroughly after handling."}, {"code": "P270", "statement": "Do not eat, drink or smoke when using this product."}, {"code": "P280", "statement": "Wear eye protection/ face protection."}, {"code": "P301 + P312 + P330", "statement": "IF SWALLOWED: Call a POISON CENTER/doctor if you feel. unwell. Rinse mouth."}, {"code": "P305 + P351 + P338", "statement": "IF IN EYES: Rinse cautiously with water for several minutes.. Remove contact lenses, if present and easy to do. Continue. rinsing."}, {"code": "P337 + P313", "statement": "If eye irritation persists: Get medical advice/ attention."}, {"code": "P501", "statement": "Dispose of contents/ container to an approved waste disposal. plant."}], "canonical_smiles": "C1=CC2=C(C=C1Br)OC=CC2=O", "isomeric_smiles": "C1=CC2=C(C=C1Br)OC=CC2=O"}]