[{"id": 1697, "product_number": "P38803", "CAS_number": "1445-69-8", "product_name": "Phthalhydrazide", "product_brand": "Aldrich", "supplier": {"company": ":  Sigma-Aldrich Inc.", "location": "3050 SPRUCE ST. ST. LOUIS MO  63103. UNITED STATES", "tel": ":  +1 314 771-5765", "fax": ":  +1 800 325-5052"}, "formula": ":  C8H6N2O2", "mw": ":  162.15 g/mol", "ec": ":  215-893-4. No components need to be disclosed according to the applicable regulations.", "appearance": "Form: solid", "odor": "No data available", "pH": "No data available", "melting_point": "Melting point/range: > 300 \u00b0C (> 572 \u00b0F) - lit.. point/freezing point", "flash_point": "()No data available", "evaporation_rate": "No data available", "flammability": "No data available. gas)", "vapor_pressure": "No data available", "vapor_density": "No data available", "density": "No data available. Relative density. No data available", "water_solubility": "No data available", "partition_coefficient": "No data available. n-octanol/water", "autoignition": "No data available. temperature", "decomposition": "No data available. temperature", "viscosity": "No data available", "explosive_properties": "No data available", "oxidizing_properties": "No data available", "bulk_density": "No data available", "particle_size": "No data available", "statements": [], "canonical_smiles": "C1=CC=C2C(=C1)C(=O)NNC2=O", "isomeric_smiles": "C1=CC=C2C(=C1)C(=O)NNC2=O"}, {"id": 3356, "product_number": "93094", "CAS_number": "39319-11-4", "product_name": "Triphenylphosphine, polymer-bound", "product_brand": "Aldrich", "supplier": {"company": ":  Sigma-Aldrich Inc.", "location": "3050 SPRUCE ST. ST. LOUIS MO  63103. UNITED STATES", "tel": ":  +1 314 771-5765", "fax": ":  +1 800 325-5052"}, "formula": ":  C18H15P", "mw": ":  262.29 g/mol", "ec": "No data available", "appearance": "Form: solid", "odor": "No data available", "pH": "No data available", "melting_point": "No data available. point/freezing point", "flash_point": "No data available", "evaporation_rate": "No data available", "flammability": "No data available. gas)", "vapor_pressure": "No data available", "vapor_density": "No data available", "density": "No data available", "water_solubility": "No data available", "partition_coefficient": "No data available. n-octanol/water", "autoignition": "No data available", "decomposition": "No data available. temperature", "viscosity": "No data available", "explosive_properties": "No data available", "oxidizing_properties": "No data available", "bulk_density": "No data available", "particle_size": "No data available", "statements": [], "canonical_smiles": "No data available", "isomeric_smiles": "No data available"}, {"id": 1735, "product_number": "Y0000649", "CAS_number": "144701-48-4", "product_name": "Telmisartan for peak identification", "product_brand": "Sigma-Aldrich", "supplier": {"company": ":  Sigma-Aldrich Inc.", "location": "3050 SPRUCE ST. ST. LOUIS MO  63103. UNITED STATES", "tel": ":  +1 314 771-5765", "fax": ":  +1 800 325-5052"}, "formula": ":  C33H30N4O2", "mw": ":  514.62 g/mol", "ec": "No data available", "appearance": "No data available", "odor": "No data available", "pH": "No data available", "melting_point": "No data available", "flash_point": "No data available", "evaporation_rate": "No data available", "flammability": "No data available", "vapor_pressure": "No data available", "vapor_density": "No data available", "density": "No data available", "water_solubility": "No data available", "partition_coefficient": "No data available", "autoignition": "No data available", "decomposition": "No data available", "viscosity": "No data available", "explosive_properties": "No data available", "oxidizing_properties": "No data available", "bulk_density": "No data available", "particle_size": "No data available", "statements": [], "canonical_smiles": "CCCC1=NC2=C(N1CC3=CC=C(C=C3)C4=CC=CC=C4C(=O)O)C=C(C=C2C)C5=NC6=CC=CC=C6N5C", "isomeric_smiles": "CCCC1=NC2=C(N1CC3=CC=C(C=C3)C4=CC=CC=C4C(=O)O)C=C(C=C2C)C5=NC6=CC=CC=C6N5C"}, {"id": 3480, "product_number": "WX0001", "CAS_number": "7732-18-5", "product_name": "Water LC-MS Grade For Liquid", "product_brand": "Millipore", "supplier": {"company": ":  Sigma-Aldrich Inc.", "location": "3050 SPRUCE ST. ST. LOUIS MO  63103. UNITED STATES", "tel": ":  +1 314 771-5765", "fax": ":  +1 800 325-5052"}, "formula": ":  H2O", "mw": ":  18.02 g/mol", "ec": ":  231-791-2. No components need to be disclosed according to the applicable regulations.", "appearance": "Form: liquid. Color: colorless", "odor": "No data available", "pH": "6.0 - 8.0 at 25 \u00b0C (77 \u00b0F)", "melting_point": "Melting point/range: 0.0 \u00b0C (32.0 \u00b0F). point/freezing point", "flash_point": "()No data available", "evaporation_rate": "No data available", "flammability": "No data available. gas)", "vapor_pressure": "No data available", "vapor_density": "No data available", "density": "No data available", "water_solubility": "completely miscible", "partition_coefficient": "log Pow: -0.467 - Bioaccumulation is not expected.. n-octanol/water", "autoignition": "No data available. temperature", "decomposition": "No data available. temperature", "viscosity": "No data available", "explosive_properties": "No data available", "oxidizing_properties": "No data available", "bulk_density": "No data available", "particle_size": "No data available", "statements": [], "canonical_smiles": "No data available", "isomeric_smiles": "No data available"}, {"id": 3495, "product_number": "WX0004", "CAS_number": "7732-18-5", "product_name": "Water For HPLC Gradient Analysis,", "product_brand": "Millipore", "supplier": {"company": ":  Sigma-Aldrich Inc.", "location": "3050 SPRUCE ST. ST. LOUIS MO  63103. UNITED STATES", "tel": ":  +1 314 771-5765", "fax": ":  +1 800 325-5052"}, "formula": ":  H2O", "mw": ":  18.02 g/mol", "ec": ":  231-791-2. No components need to be disclosed according to the applicable regulations.", "appearance": "Form: liquid. Color: colorless", "odor": "No data available", "pH": "6.0 - 8.0 at 25 \u00b0C (77 \u00b0F)", "melting_point": "Melting point/range: 0.0 \u00b0C (32.0 \u00b0F). point/freezing point", "flash_point": "()No data available", "evaporation_rate": "No data available", "flammability": "No data available. gas)", "vapor_pressure": "No data available", "vapor_density": "No data available", "density": "1.000 g/cm3 at 3.98 \u00b0C (39.16 \u00b0F) - lit.. Relative density. No data available", "water_solubility": "completely miscible", "partition_coefficient": "log Pow: -0.467 - Bioaccumulation is not expected.. n-octanol/water", "autoignition": "No data available. temperature", "decomposition": "No data available. temperature", "viscosity": "No data available", "explosive_properties": "No data available", "oxidizing_properties": "No data available", "bulk_density": "No data available", "particle_size": "No data available", "statements": [], "canonical_smiles": "No data available", "isomeric_smiles": "No data available"}]