[{"id": 46697, "product_number": "C117609", "CAS_number": "5500-21-0", "product_name": "Cyclopropanecarbonitrile", "product_brand": "Aldrich", "supplier": {"company": ":  Sigma-Aldrich Inc.", "location": "3050 SPRUCE ST. ST. LOUIS MO  63103. UNITED STATES", "tel": ":  +1 314 771-5765", "fax": ":  +1 800 325-5052"}, "formula": ":  C4H5N", "mw": ":  67.09 g/mol", "ec": ":  226-836-8. TabulaTable(extraction_method=stream, page_number=2, top=592.0, bottom=686.0, left=80.0, right=558.0, width=478.0, height=94.0, data=\n+------------------------+-------------------------------------------------------------------------------------------------------------+-------------+\n|Component               |Classification                                                                                               |Concentration|\n+------------------------+-------------------------------------------------------------------------------------------------------------+-------------+\n|cyclopropanecarbonitrile|                                                                                                             |             |\n+------------------------+-------------------------------------------------------------------------------------------------------------+-------------+\n|cyclopropanecarbonitrile|Flam. Liq. 3; Acute Tox. 3; Skin Irrit. 2; Eye Irrit. 2A; STOT SE 3; H226, H301, H331, H311, H315, H319, H335|<= 100 %     |\n+------------------------+-------------------------------------------------------------------------------------------------------------+-------------+\n, additional_ops=['strip_text', 'merge_rows', 'pull_down_to_empty'])", "appearance": "Form: clear, liquid. Color: colorless", "odor": "No data available", "pH": "No data available", "melting_point": "No data available. point/freezing point", "flash_point": "40 \u00b0C (104 \u00b0F) - closed cup", "evaporation_rate": "No data available", "flammability": "No data available. gas)", "vapor_pressure": "No data available", "vapor_density": "No data available", "density": "0.911 g/cm3 at 25 \u00b0C (77 \u00b0F) - lit.. Relative density. No data available", "water_solubility": "No data available", "partition_coefficient": "No data available. n-octanol/water", "autoignition": "No data available. temperature", "decomposition": "No data available. temperature", "viscosity": "No data available", "explosive_properties": "No data available", "oxidizing_properties": "No data available", "bulk_density": "No data available", "particle_size": "No data available", "statements": [{"code": "H226", "statement": "Flammable liquid and vapor."}, {"code": "H301 + H311 + H331", "statement": "Toxic if swallowed, in contact with skin or if inhaled.. Precautionary statement(s)"}, {"code": "P210", "statement": "Keep away from heat/ sparks/ open flames/ hot surfaces. No. smoking."}, {"code": "P233", "statement": "Keep container tightly closed."}, {"code": "P240", "statement": "Ground/bond container and receiving equipment."}, {"code": "P241", "statement": "Use explosion-proof electrical/ ventilating/ lighting/ equipment."}, {"code": "P242", "statement": "Use only non-sparking tools."}, {"code": "P243", "statement": "Take precautionary measures against static discharge."}, {"code": "P261", "statement": "Avoid breathing dust/ fume/ gas/ mist/ vapors/ spray."}, {"code": "P264", "statement": "Wash skin thoroughly after handling."}, {"code": "P270", "statement": "Do not eat, drink or smoke when using this product."}, {"code": "P271", "statement": "Use only outdoors or in a well-ventilated area."}, {"code": "P280", "statement": "Wear protective gloves/ eye protection/ face protection."}, {"code": "P301 + P310 + P330", "statement": "IF SWALLOWED: Immediately call a POISON CENTER/ doctor.. Rinse mouth."}, {"code": "P303 + P361 + P353", "statement": "IF ON SKIN (or hair): Take off immediately all contaminated. clothing. Rinse skin with water/ shower."}, {"code": "P304 + P340 + P311", "statement": "IF INHALED: Remove person to fresh air and keep comfortable. for breathing. Call a POISON CENTER/ doctor."}, {"code": "P362", "statement": "Take off contaminated clothing and wash before reuse."}, {"code": "P370 + P378", "statement": "In case of fire: Use dry sand, dry chemical or alcohol-resistant. foam to extinguish."}, {"code": "P403 + P233", "statement": "Store in a well-ventilated place. Keep container tightly closed."}, {"code": "P403 + P235", "statement": "Store in a well-ventilated place. Keep cool."}, {"code": "P405", "statement": "Store locked up."}, {"code": "P501", "statement": "Dispose of contents/ container to an approved waste disposal. plant."}], "canonical_smiles": "C1CC1C#N", "isomeric_smiles": "C1CC1C#N"}, {"id": 755, "product_number": "Y0002127", "CAS_number": "1424-00-6", "product_name": "Mesterolone for system suitability", "product_brand": "Supelco", "supplier": {"company": ":  Sigma-Aldrich Inc.", "location": "3050 SPRUCE ST. ST. LOUIS MO  63103. UNITED STATES", "tel": ":  +1 314 771-5765", "fax": ":  +1 800 325-5052"}, "formula": ":  C20H32O2", "mw": ":  304.5 g/mol", "ec": ":  215-836-3. TabulaTable(extraction_method=stream, page_number=2, top=467.0, bottom=549.0, left=80.0, right=558.0, width=478.0, height=82.0, data=\n+-----------+-------------------------------------------------------------------------------------------+-------------+\n|Component  |Classification                                                                             |Concentration|\n+-----------+-------------------------------------------------------------------------------------------+-------------+\n|Mesterolone|                                                                                           |             |\n+-----------+-------------------------------------------------------------------------------------------+-------------+\n|Mesterolone|Carc. 2; Repr. 1B; Lact. ; Aquatic Acute 2; Aquatic Chronic 2; H351, H360, H362, H401, H411|<= 100 %     |\n+-----------+-------------------------------------------------------------------------------------------+-------------+\n, additional_ops=['strip_text', 'merge_rows', 'pull_down_to_empty'])", "appearance": "Form: solid", "odor": "No data available", "pH": "No data available", "melting_point": "209 \u00b0C (408 \u00b0F). point/freezing point", "flash_point": "()No data available", "evaporation_rate": "No data available", "flammability": "No data available. gas)", "vapor_pressure": "No data available", "vapor_density": "No data available", "density": "No data available", "water_solubility": "No data available", "partition_coefficient": "No data available", "autoignition": "No data available", "decomposition": "No data available", "viscosity": "No data available", "explosive_properties": "No data available", "oxidizing_properties": "No data available", "bulk_density": "No data available", "particle_size": "No data available", "statements": [{"code": "H226", "statement": "Flammable liquid and vapor."}, {"code": "H301 + H311 + H331", "statement": "Toxic if swallowed, in contact with skin or if inhaled.. Precautionary statement(s)"}, {"code": "P210", "statement": "Keep away from heat/ sparks/ open flames/ hot surfaces. No. smoking."}, {"code": "P233", "statement": "Keep container tightly closed."}, {"code": "P240", "statement": "Ground/bond container and receiving equipment."}, {"code": "P241", "statement": "Use explosion-proof electrical/ ventilating/ lighting/ equipment."}, {"code": "P242", "statement": "Use only non-sparking tools."}, {"code": "P243", "statement": "Take precautionary measures against static discharge."}, {"code": "P261", "statement": "Avoid breathing dust/ fume/ gas/ mist/ vapors/ spray."}, {"code": "P264", "statement": "Wash skin thoroughly after handling."}, {"code": "P270", "statement": "Do not eat, drink or smoke when using this product."}, {"code": "P271", "statement": "Use only outdoors or in a well-ventilated area."}, {"code": "P280", "statement": "Wear protective gloves/ eye protection/ face protection."}, {"code": "P301 + P310 + P330", "statement": "IF SWALLOWED: Immediately call a POISON CENTER/ doctor.. Rinse mouth."}, {"code": "P303 + P361 + P353", "statement": "IF ON SKIN (or hair): Take off immediately all contaminated. clothing. Rinse skin with water/ shower."}, {"code": "P304 + P340 + P311", "statement": "IF INHALED: Remove person to fresh air and keep comfortable. for breathing. Call a POISON CENTER/ doctor."}, {"code": "P362", "statement": "Take off contaminated clothing and wash before reuse."}, {"code": "P370 + P378", "statement": "In case of fire: Use dry sand, dry chemical or alcohol-resistant. foam to extinguish."}, {"code": "P403 + P233", "statement": "Store in a well-ventilated place. Keep container tightly closed."}, {"code": "P403 + P235", "statement": "Store in a well-ventilated place. Keep cool."}, {"code": "P405", "statement": "Store locked up."}, {"code": "P501", "statement": "Dispose of contents/ container to an approved waste disposal. plant."}], "canonical_smiles": "No data available", "isomeric_smiles": "No data available"}, {"id": 5136, "product_number": "P8913", "CAS_number": "9001-84-7", "product_name": "Phospholipase A2, from bovine pancreas", "product_brand": "Sigma", "supplier": {"company": ":  Sigma-Aldrich Inc.", "location": "3050 SPRUCE ST. ST. LOUIS MO  63103. UNITED STATES", "tel": ":  +1 314 771-5765", "fax": ":  +1 800 325-5052"}, "formula": "No data available", "mw": "No data available", "ec": ":  232-637-7. No components need to be disclosed according to the applicable regulations.", "appearance": "No data available", "odor": "No data available", "pH": "No data available", "melting_point": "No data available", "flash_point": "No data available", "evaporation_rate": "No data available", "flammability": "No data available", "vapor_pressure": "No data available", "vapor_density": "No data available", "density": "No data available", "water_solubility": "No data available", "partition_coefficient": "No data available", "autoignition": "No data available", "decomposition": "No data available", "viscosity": "No data available", "explosive_properties": "No data available", "oxidizing_properties": "No data available", "bulk_density": "No data available", "particle_size": "No data available", "statements": [{"code": "H226", "statement": "Flammable liquid and vapor."}, {"code": "H301 + H311 + H331", "statement": "Toxic if swallowed, in contact with skin or if inhaled.. Precautionary statement(s)"}, {"code": "P210", "statement": "Keep away from heat/ sparks/ open flames/ hot surfaces. No. smoking."}, {"code": "P233", "statement": "Keep container tightly closed."}, {"code": "P240", "statement": "Ground/bond container and receiving equipment."}, {"code": "P241", "statement": "Use explosion-proof electrical/ ventilating/ lighting/ equipment."}, {"code": "P242", "statement": "Use only non-sparking tools."}, {"code": "P243", "statement": "Take precautionary measures against static discharge."}, {"code": "P261", "statement": "Avoid breathing dust/ fume/ gas/ mist/ vapors/ spray."}, {"code": "P264", "statement": "Wash skin thoroughly after handling."}, {"code": "P270", "statement": "Do not eat, drink or smoke when using this product."}, {"code": "P271", "statement": "Use only outdoors or in a well-ventilated area."}, {"code": "P280", "statement": "Wear protective gloves/ eye protection/ face protection."}, {"code": "P301 + P310 + P330", "statement": "IF SWALLOWED: Immediately call a POISON CENTER/ doctor.. Rinse mouth."}, {"code": "P303 + P361 + P353", "statement": "IF ON SKIN (or hair): Take off immediately all contaminated. clothing. Rinse skin with water/ shower."}, {"code": "P304 + P340 + P311", "statement": "IF INHALED: Remove person to fresh air and keep comfortable. for breathing. Call a POISON CENTER/ doctor."}, {"code": "P362", "statement": "Take off contaminated clothing and wash before reuse."}, {"code": "P370 + P378", "statement": "In case of fire: Use dry sand, dry chemical or alcohol-resistant. foam to extinguish."}, {"code": "P403 + P233", "statement": "Store in a well-ventilated place. Keep container tightly closed."}, {"code": "P403 + P235", "statement": "Store in a well-ventilated place. Keep cool."}, {"code": "P405", "statement": "Store locked up."}, {"code": "P501", "statement": "Dispose of contents/ container to an approved waste disposal. plant."}], "canonical_smiles": "No data available", "isomeric_smiles": "No data available"}, {"id": 36880, "product_number": "L106", "CAS_number": "27833-64-3", "product_name": "Loxapine succinate salt", "product_brand": "Sigma", "supplier": {"company": ":  Sigma-Aldrich Inc.", "location": "3050 SPRUCE ST. ST. LOUIS MO  63103. UNITED STATES", "tel": ":  +1 314 771-5765", "fax": ":  +1 800 325-5052"}, "formula": "No data available", "mw": ":  445.90 g/mol", "ec": ":  248-682-0. No components need to be disclosed according to the applicable regulations.", "appearance": "Form: solid. Color: white", "odor": "No data available", "pH": "No data available", "melting_point": "Melting point/range: 151 - 153 \u00b0C (304 - 307 \u00b0F). point/freezing point", "flash_point": "()No data available", "evaporation_rate": "No data available", "flammability": "No data available. gas)", "vapor_pressure": "No data available", "vapor_density": "No data available", "density": "No data available. Relative density. No data available", "water_solubility": "No data available", "partition_coefficient": "No data available. n-octanol/water", "autoignition": "No data available. temperature", "decomposition": "No data available. temperature", "viscosity": "No data available", "explosive_properties": "No data available", "oxidizing_properties": "No data available", "bulk_density": "No data available", "particle_size": "No data available", "statements": [{"code": "H226", "statement": "Flammable liquid and vapor."}, {"code": "H301 + H311 + H331", "statement": "Toxic if swallowed, in contact with skin or if inhaled.. Precautionary statement(s)"}, {"code": "P210", "statement": "Keep away from heat/ sparks/ open flames/ hot surfaces. No. smoking."}, {"code": "P233", "statement": "Keep container tightly closed."}, {"code": "P240", "statement": "Ground/bond container and receiving equipment."}, {"code": "P241", "statement": "Use explosion-proof electrical/ ventilating/ lighting/ equipment."}, {"code": "P242", "statement": "Use only non-sparking tools."}, {"code": "P243", "statement": "Take precautionary measures against static discharge."}, {"code": "P261", "statement": "Avoid breathing dust/ fume/ gas/ mist/ vapors/ spray."}, {"code": "P264", "statement": "Wash skin thoroughly after handling."}, {"code": "P270", "statement": "Do not eat, drink or smoke when using this product."}, {"code": "P271", "statement": "Use only outdoors or in a well-ventilated area."}, {"code": "P280", "statement": "Wear protective gloves/ eye protection/ face protection."}, {"code": "P301 + P310 + P330", "statement": "IF SWALLOWED: Immediately call a POISON CENTER/ doctor.. Rinse mouth."}, {"code": "P303 + P361 + P353", "statement": "IF ON SKIN (or hair): Take off immediately all contaminated. clothing. Rinse skin with water/ shower."}, {"code": "P304 + P340 + P311", "statement": "IF INHALED: Remove person to fresh air and keep comfortable. for breathing. Call a POISON CENTER/ doctor."}, {"code": "P362", "statement": "Take off contaminated clothing and wash before reuse."}, {"code": "P370 + P378", "statement": "In case of fire: Use dry sand, dry chemical or alcohol-resistant. foam to extinguish."}, {"code": "P403 + P233", "statement": "Store in a well-ventilated place. Keep container tightly closed."}, {"code": "P403 + P235", "statement": "Store in a well-ventilated place. Keep cool."}, {"code": "P405", "statement": "Store locked up."}, {"code": "P501", "statement": "Dispose of contents/ container to an approved waste disposal. plant."}], "canonical_smiles": "CN1CCN(CC1)C2=NC3=CC=CC=C3OC4=C2C=C(C=C4)Cl.C(CC(=O)O)C(=O)O", "isomeric_smiles": "CN1CCN(CC1)C2=NC3=CC=CC=C3OC4=C2C=C(C=C4)Cl.C(CC(=O)O)C(=O)O"}, {"id": 28164, "product_number": "185493", "CAS_number": "103-32-2", "product_name": "N-Benzylaniline", "product_brand": "Aldrich", "supplier": {"company": ":  Sigma-Aldrich Inc.", "location": "3050 SPRUCE ST. ST. LOUIS MO  63103. UNITED STATES", "tel": ":  +1 314 771-5765", "fax": ":  +1 800 325-5052"}, "formula": ":  C13H13N", "mw": ":  183.25 g/mol", "ec": ":  203-100-4. No components need to be disclosed according to the applicable regulations.", "appearance": "Form: Solidified mass or fragments. Color: yellow", "odor": "No data available", "pH": "No data available", "melting_point": "Melting point/range: 35 - 38 \u00b0C (95 - 100 \u00b0F) - lit.. point/freezing point", "flash_point": "113 \u00b0C (235 \u00b0F) - closed cup", "evaporation_rate": "No data available", "flammability": "No data available. gas)", "vapor_pressure": "No data available", "vapor_density": "No data available", "density": "1.061 g/cm3 at 25 \u00b0C (77 \u00b0F) - lit.. Relative density. No data available", "water_solubility": "No data available", "partition_coefficient": "No data available. n-octanol/water", "autoignition": "No data available. temperature", "decomposition": "No data available. temperature", "viscosity": "No data available", "explosive_properties": "No data available", "oxidizing_properties": "No data available", "bulk_density": "No data available", "particle_size": "No data available", "statements": [{"code": "H226", "statement": "Flammable liquid and vapor."}, {"code": "H301 + H311 + H331", "statement": "Toxic if swallowed, in contact with skin or if inhaled.. Precautionary statement(s)"}, {"code": "P210", "statement": "Keep away from heat/ sparks/ open flames/ hot surfaces. No. smoking."}, {"code": "P233", "statement": "Keep container tightly closed."}, {"code": "P240", "statement": "Ground/bond container and receiving equipment."}, {"code": "P241", "statement": "Use explosion-proof electrical/ ventilating/ lighting/ equipment."}, {"code": "P242", "statement": "Use only non-sparking tools."}, {"code": "P243", "statement": "Take precautionary measures against static discharge."}, {"code": "P261", "statement": "Avoid breathing dust/ fume/ gas/ mist/ vapors/ spray."}, {"code": "P264", "statement": "Wash skin thoroughly after handling."}, {"code": "P270", "statement": "Do not eat, drink or smoke when using this product."}, {"code": "P271", "statement": "Use only outdoors or in a well-ventilated area."}, {"code": "P280", "statement": "Wear protective gloves/ eye protection/ face protection."}, {"code": "P301 + P310 + P330", "statement": "IF SWALLOWED: Immediately call a POISON CENTER/ doctor.. Rinse mouth."}, {"code": "P303 + P361 + P353", "statement": "IF ON SKIN (or hair): Take off immediately all contaminated. clothing. Rinse skin with water/ shower."}, {"code": "P304 + P340 + P311", "statement": "IF INHALED: Remove person to fresh air and keep comfortable. for breathing. Call a POISON CENTER/ doctor."}, {"code": "P362", "statement": "Take off contaminated clothing and wash before reuse."}, {"code": "P370 + P378", "statement": "In case of fire: Use dry sand, dry chemical or alcohol-resistant. foam to extinguish."}, {"code": "P403 + P233", "statement": "Store in a well-ventilated place. Keep container tightly closed."}, {"code": "P403 + P235", "statement": "Store in a well-ventilated place. Keep cool."}, {"code": "P405", "statement": "Store locked up."}, {"code": "P501", "statement": "Dispose of contents/ container to an approved waste disposal. plant."}], "canonical_smiles": "C1=CC=C(C=C1)CNC2=CC=CC=C2", "isomeric_smiles": "C1=CC=C(C=C1)CNC2=CC=CC=C2"}, {"id": 28185, "product_number": "637890", "CAS_number": "13862-28-7", "product_name": "Potassium methyltrifluoroborate", "product_brand": "Aldrich", "supplier": {"company": ":  Sigma-Aldrich Inc.", "location": "3050 SPRUCE ST. ST. LOUIS MO  63103. UNITED STATES", "tel": ":  +1 314 771-5765", "fax": ":  +1 800 325-5052"}, "formula": ":  CH3BF3K", "mw": ":  121.94 g/mol", "ec": "No data available", "appearance": "Form: solid", "odor": "No data available", "pH": "No data available", "melting_point": "Melting point/range: 168 - 183 \u00b0C (334 - 361 \u00b0F). point/freezing point", "flash_point": "()Not applicable", "evaporation_rate": "No data available", "flammability": "No data available. gas)", "vapor_pressure": "No data available", "vapor_density": "No data available", "density": "No data available. Relative density. No data available", "water_solubility": "No data available", "partition_coefficient": "No data available. n-octanol/water", "autoignition": "No data available. temperature", "decomposition": "No data available. temperature", "viscosity": "No data available", "explosive_properties": "No data available", "oxidizing_properties": "No data available", "bulk_density": "No data available", "particle_size": "No data available", "statements": [{"code": "H226", "statement": "Flammable liquid and vapor."}, {"code": "H301 + H311 + H331", "statement": "Toxic if swallowed, in contact with skin or if inhaled.. Precautionary statement(s)"}, {"code": "P210", "statement": "Keep away from heat/ sparks/ open flames/ hot surfaces. No. smoking."}, {"code": "P233", "statement": "Keep container tightly closed."}, {"code": "P240", "statement": "Ground/bond container and receiving equipment."}, {"code": "P241", "statement": "Use explosion-proof electrical/ ventilating/ lighting/ equipment."}, {"code": "P242", "statement": "Use only non-sparking tools."}, {"code": "P243", "statement": "Take precautionary measures against static discharge."}, {"code": "P261", "statement": "Avoid breathing dust/ fume/ gas/ mist/ vapors/ spray."}, {"code": "P264", "statement": "Wash skin thoroughly after handling."}, {"code": "P270", "statement": "Do not eat, drink or smoke when using this product."}, {"code": "P271", "statement": "Use only outdoors or in a well-ventilated area."}, {"code": "P280", "statement": "Wear protective gloves/ eye protection/ face protection."}, {"code": "P301 + P310 + P330", "statement": "IF SWALLOWED: Immediately call a POISON CENTER/ doctor.. Rinse mouth."}, {"code": "P303 + P361 + P353", "statement": "IF ON SKIN (or hair): Take off immediately all contaminated. clothing. Rinse skin with water/ shower."}, {"code": "P304 + P340 + P311", "statement": "IF INHALED: Remove person to fresh air and keep comfortable. for breathing. Call a POISON CENTER/ doctor."}, {"code": "P362", "statement": "Take off contaminated clothing and wash before reuse."}, {"code": "P370 + P378", "statement": "In case of fire: Use dry sand, dry chemical or alcohol-resistant. foam to extinguish."}, {"code": "P403 + P233", "statement": "Store in a well-ventilated place. Keep container tightly closed."}, {"code": "P403 + P235", "statement": "Store in a well-ventilated place. Keep cool."}, {"code": "P405", "statement": "Store locked up."}, {"code": "P501", "statement": "Dispose of contents/ container to an approved waste disposal. plant."}], "canonical_smiles": "[B-](C)(F)(F)F.[K+]", "isomeric_smiles": "[B-](C)(F)(F)F.[K+]"}]