[{"id": 878, "product_number": "S431249", "CAS_number": "90611-37-3", "product_name": "2-NORBORNYL THIOLACETATE", "product_brand": "Aldrich", "supplier": {"company": ":  Sigma-Aldrich Inc.", "location": "3050 SPRUCE ST. ST. LOUIS MO  63103. UNITED STATES", "tel": ":  +1 314 771-5765", "fax": ":  +1 800 325-5052"}, "formula": ":  C9H14OS", "mw": ":  170.27 g/mol", "ec": "No data available", "appearance": "Form: liquid. Color: yellow", "odor": "No data available", "pH": "No data available", "melting_point": "No data available. point/freezing point", "flash_point": "77.8 \u00b0C (172.0 \u00b0F) - closed cup", "evaporation_rate": "No data available", "flammability": "No data available. gas)", "vapor_pressure": "No data available", "vapor_density": "No data available", "density": "1.063 g/cm3. Relative density. No data available", "water_solubility": "No data available", "partition_coefficient": "No data available. n-octanol/water", "autoignition": "No data available. temperature", "decomposition": "No data available. temperature", "viscosity": "No data available", "explosive_properties": "No data available", "oxidizing_properties": "No data available", "bulk_density": "No data available", "particle_size": "No data available", "statements": [{"code": "H227", "statement": "Combustible liquid.. Precautionary statement(s)"}, {"code": "P210", "statement": "Keep away from heat/ sparks/ open flames/ hot surfaces. No. smoking."}, {"code": "P280", "statement": "Wear protective gloves/ protective clothing/ eye protection/ face. protection."}, {"code": "P370 + P378", "statement": "In case of fire: Use dry sand, dry chemical or alcohol-resistant. foam for extinction."}, {"code": "P403 + P235", "statement": "Store in a well-ventilated place. Keep cool."}, {"code": "P501", "statement": "Dispose of contents/ container to an approved waste disposal. plant."}, {"code": "H361", "statement": "Suspected of damaging fertility or the unborn child.. Precautionary statement(s)"}, {"code": "P201", "statement": "Obtain special instructions before use."}], "canonical_smiles": "CC(=O)SC1CC2CCC1C2", "isomeric_smiles": "CC(=O)SC1C[C@@H]2CC[C@H]1C2"}, {"id": 776, "product_number": "CBR00217", "CAS_number": "21377-09-3", "product_name": "1-Benzyl-1H-pyrazol-3-amine", "product_brand": "Aldrich", "supplier": {"company": ":  Sigma-Aldrich Inc.", "location": "3050 SPRUCE ST. ST. LOUIS MO  63103. UNITED STATES", "tel": ":  +1 314 771-5765", "fax": ":  +1 800 325-5052"}, "formula": ":  C10H11N3", "mw": ":  173.21 g/mol", "ec": "No data available", "appearance": "No data available", "odor": "No data available", "pH": "No data available", "melting_point": "No data available", "flash_point": "No data available", "evaporation_rate": "No data available", "flammability": "No data available", "vapor_pressure": "No data available", "vapor_density": "No data available", "density": "No data available", "water_solubility": "No data available", "partition_coefficient": "No data available", "autoignition": "No data available", "decomposition": "No data available", "viscosity": "No data available", "explosive_properties": "No data available", "oxidizing_properties": "No data available", "bulk_density": "No data available", "particle_size": "No data available", "statements": [{"code": "H227", "statement": "Combustible liquid.. Precautionary statement(s)"}, {"code": "P210", "statement": "Keep away from heat/ sparks/ open flames/ hot surfaces. No. smoking."}, {"code": "P280", "statement": "Wear protective gloves/ protective clothing/ eye protection/ face. protection."}, {"code": "P370 + P378", "statement": "In case of fire: Use dry sand, dry chemical or alcohol-resistant. foam for extinction."}, {"code": "P403 + P235", "statement": "Store in a well-ventilated place. Keep cool."}, {"code": "P501", "statement": "Dispose of contents/ container to an approved waste disposal. plant."}, {"code": "H361", "statement": "Suspected of damaging fertility or the unborn child.. Precautionary statement(s)"}, {"code": "P201", "statement": "Obtain special instructions before use."}], "canonical_smiles": "C1=CC=C(C=C1)CN2C=CC(=N2)N", "isomeric_smiles": "C1=CC=C(C=C1)CN2C=CC(=N2)N"}, {"id": 17773, "product_number": "BP1120", "CAS_number": "106685-40-9", "product_name": "Adapalene", "product_brand": "Sigma-Aldrich", "supplier": {"company": ":  Sigma-Aldrich Inc.", "location": "3050 SPRUCE ST. ST. LOUIS MO  63103. UNITED STATES", "tel": ":  +1 314 771-5765", "fax": ":  +1 800 325-5052"}, "formula": ":  C28H28O3", "mw": ":  412.52 g/mol", "ec": ":  620-513-9. TabulaTable(extraction_method=stream, page_number=2, top=279.0, bottom=325.0, left=80.0, right=558.0, width=478.0, height=46.0, data=\n+---------+--------------+-------------+\n|Component|Classification|Concentration|\n+---------+--------------+-------------+\n|Adapalene|              |             |\n+---------+--------------+-------------+\n|Adapalene|Repr. 2; H361 |<= 100 %     |\n+---------+--------------+-------------+\n, additional_ops=['strip_text', 'merge_rows', 'pull_down_to_empty'])", "appearance": "Form: solid", "odor": "No data available", "pH": "No data available", "melting_point": "Melting point/range: 319 - 322 \u00b0C (606 - 612 \u00b0F). point/freezing point", "flash_point": "()No data available", "evaporation_rate": "No data available", "flammability": "No data available. gas)", "vapor_pressure": "No data available", "vapor_density": "No data available", "density": "No data available. Relative density. No data available", "water_solubility": "No data available", "partition_coefficient": "No data available. n-octanol/water", "autoignition": "No data available. temperature", "decomposition": "No data available. temperature", "viscosity": "No data available", "explosive_properties": "No data available", "oxidizing_properties": "No data available", "bulk_density": "No data available", "particle_size": "No data available", "statements": [{"code": "H227", "statement": "Combustible liquid.. Precautionary statement(s)"}, {"code": "P210", "statement": "Keep away from heat/ sparks/ open flames/ hot surfaces. No. smoking."}, {"code": "P280", "statement": "Wear protective gloves/ protective clothing/ eye protection/ face. protection."}, {"code": "P370 + P378", "statement": "In case of fire: Use dry sand, dry chemical or alcohol-resistant. foam for extinction."}, {"code": "P403 + P235", "statement": "Store in a well-ventilated place. Keep cool."}, {"code": "P501", "statement": "Dispose of contents/ container to an approved waste disposal. plant."}, {"code": "H361", "statement": "Suspected of damaging fertility or the unborn child.. Precautionary statement(s)"}, {"code": "P201", "statement": "Obtain special instructions before use."}], "canonical_smiles": "COC1=C(C=C(C=C1)C2=CC3=C(C=C2)C=C(C=C3)C(=O)O)C45CC6CC(C4)CC(C6)C5", "isomeric_smiles": "COC1=C(C=C(C=C1)C2=CC3=C(C=C2)C=C(C=C3)C(=O)O)C45CC6CC(C4)CC(C6)C5"}, {"id": 777, "product_number": "428205M", "CAS_number": "213743-31-8", "product_name": "Lck Inhibitor", "product_brand": "Millipore", "supplier": {"company": ":  Sigma-Aldrich Inc.", "location": "3050 SPRUCE ST. ST. LOUIS MO  63103. UNITED STATES", "tel": ":  +1 314 771-5765", "fax": ":  +1 800 325-5052"}, "formula": ":  C23H22N4O", "mw": ":  370.45 g/mol", "ec": "No data available", "appearance": "Form: solid", "odor": "No data available", "pH": "No data available", "melting_point": "No data available. point/freezing point", "flash_point": "No data available", "evaporation_rate": "No data available", "flammability": "No data available. gas)", "vapor_pressure": "No data available", "vapor_density": "No data available", "density": "No data available. Relative density. No data available", "water_solubility": "No data available", "partition_coefficient": "No data available. n-octanol/water", "autoignition": "No data available. temperature", "decomposition": "No data available. temperature", "viscosity": "No data available", "explosive_properties": "No data available", "oxidizing_properties": "No data available", "bulk_density": "No data available", "particle_size": "No data available", "statements": [{"code": "H227", "statement": "Combustible liquid.. Precautionary statement(s)"}, {"code": "P210", "statement": "Keep away from heat/ sparks/ open flames/ hot surfaces. No. smoking."}, {"code": "P280", "statement": "Wear protective gloves/ protective clothing/ eye protection/ face. protection."}, {"code": "P370 + P378", "statement": "In case of fire: Use dry sand, dry chemical or alcohol-resistant. foam for extinction."}, {"code": "P403 + P235", "statement": "Store in a well-ventilated place. Keep cool."}, {"code": "P501", "statement": "Dispose of contents/ container to an approved waste disposal. plant."}, {"code": "H361", "statement": "Suspected of damaging fertility or the unborn child.. Precautionary statement(s)"}, {"code": "P201", "statement": "Obtain special instructions before use."}], "canonical_smiles": "CC1=C(C(=CC=C1)C)N2C(=O)C3=CN=C(N=C3N4C2=NC5=CC=CC=C54)NC6=CC=C(C=C6)N7CCN(CC7)C", "isomeric_smiles": "CC1=C(C(=CC=C1)C)N2C(=O)C3=CN=C(N=C3N4C2=NC5=CC=CC=C54)NC6=CC=C(C=C6)N7CCN(CC7)C"}, {"id": 857, "product_number": "ADE000450", "CAS_number": "905966-34-9", "product_name": "5-Bromo-3-((trimethylsilyl)ethynyl)pyridin-2-", "product_brand": "Aldrich", "supplier": {"company": ":  Sigma-Aldrich Inc.", "location": "3050 SPRUCE ST. ST. LOUIS MO  63103. UNITED STATES", "tel": ":  +1 314 771-5765", "fax": ":  +1 800 325-5052"}, "formula": ":  C10H13BrN2Si", "mw": ":  269.21 g/mol", "ec": "No data available", "appearance": "No data available", "odor": "No data available", "pH": "No data available", "melting_point": "No data available", "flash_point": "No data available", "evaporation_rate": "No data available", "flammability": "No data available", "vapor_pressure": "No data available", "vapor_density": "No data available", "density": "No data available", "water_solubility": "No data available", "partition_coefficient": "No data available", "autoignition": "No data available", "decomposition": "No data available", "viscosity": "No data available", "explosive_properties": "No data available", "oxidizing_properties": "No data available", "bulk_density": "No data available", "particle_size": "No data available", "statements": [{"code": "H227", "statement": "Combustible liquid.. Precautionary statement(s)"}, {"code": "P210", "statement": "Keep away from heat/ sparks/ open flames/ hot surfaces. No. smoking."}, {"code": "P280", "statement": "Wear protective gloves/ protective clothing/ eye protection/ face. protection."}, {"code": "P370 + P378", "statement": "In case of fire: Use dry sand, dry chemical or alcohol-resistant. foam for extinction."}, {"code": "P403 + P235", "statement": "Store in a well-ventilated place. Keep cool."}, {"code": "P501", "statement": "Dispose of contents/ container to an approved waste disposal. plant."}, {"code": "H361", "statement": "Suspected of damaging fertility or the unborn child.. Precautionary statement(s)"}, {"code": "P201", "statement": "Obtain special instructions before use."}], "canonical_smiles": "No data available", "isomeric_smiles": "No data available"}, {"id": 800, "product_number": "1605523", "CAS_number": "112773-90-7", "product_name": "Ropivacaine Related Compound B, United", "product_brand": "US Pharmacopeia", "supplier": {"company": ":  Sigma-Aldrich Inc.", "location": "3050 SPRUCE ST. ST. LOUIS MO  63103. UNITED STATES", "tel": ":  +1 314 771-5765", "fax": ":  +1 800 325-5052"}, "formula": ":  C17H27ClN2O", "mw": ":  310.9 g/mol", "ec": "No data available", "appearance": "Form: solid", "odor": "No data available", "pH": "No data available", "melting_point": "No data available. point/freezing point", "flash_point": "()Not applicable", "evaporation_rate": "No data available", "flammability": "No data available. gas)", "vapor_pressure": "No data available", "vapor_density": "No data available", "density": "No data available. Relative density. No data available", "water_solubility": "No data available", "partition_coefficient": "No data available. n-octanol/water", "autoignition": "No data available. temperature", "decomposition": "No data available. temperature", "viscosity": "No data available", "explosive_properties": "No data available", "oxidizing_properties": "No data available", "bulk_density": "No data available", "particle_size": "No data available", "statements": [{"code": "H227", "statement": "Combustible liquid.. Precautionary statement(s)"}, {"code": "P210", "statement": "Keep away from heat/ sparks/ open flames/ hot surfaces. No. smoking."}, {"code": "P280", "statement": "Wear protective gloves/ protective clothing/ eye protection/ face. protection."}, {"code": "P370 + P378", "statement": "In case of fire: Use dry sand, dry chemical or alcohol-resistant. foam for extinction."}, {"code": "P403 + P235", "statement": "Store in a well-ventilated place. Keep cool."}, {"code": "P501", "statement": "Dispose of contents/ container to an approved waste disposal. plant."}, {"code": "H361", "statement": "Suspected of damaging fertility or the unborn child.. Precautionary statement(s)"}, {"code": "P201", "statement": "Obtain special instructions before use."}], "canonical_smiles": "No data available", "isomeric_smiles": "No data available"}]