[{"id": 1777, "product_number": "748161", "CAS_number": "7631-86-9", "product_name": "Silica", "product_brand": "Aldrich", "supplier": {"company": ":  Sigma-Aldrich Inc.", "location": "3050 SPRUCE ST. ST. LOUIS MO  63103. UNITED STATES", "tel": ":  +1 314 771-5765", "fax": ":  +1 800 325-5052"}, "formula": ":  O2Si", "mw": ":  60.08 g/mol", "ec": ":  231-545-4. TabulaTable(extraction_method=stream, page_number=2, top=54.0, bottom=99.0, left=80.0, right=558.0, width=478.0, height=45.0, data=\n+---------------+--------------+-------------+\n|Component      |Classification|Concentration|\n+---------------+--------------+-------------+\n|silicon dioxide|              |             |\n+---------------+--------------+-------------+\n|silicon dioxide|              |<= 100 %     |\n+---------------+--------------+-------------+\n, additional_ops=['strip_text', 'merge_rows', 'pull_down_to_empty'])", "appearance": "Form: powder. Color: white", "odor": "Not applicable", "pH": "3.7 - 4.7 at >= 40 g/l at 25 \u00b0C (77 \u00b0F)", "melting_point": "Melting point/range: 1,600 - 1,725 \u00b0C (2,912 - 3,137 \u00b0F). point/freezing point", "flash_point": "()Not applicable", "evaporation_rate": "No data available", "flammability": "No data available. gas)", "vapor_pressure": "No data available", "vapor_density": "No data available", "density": "2.56 g/cm3. Relative density. No data available", "water_solubility": "ca.0.076 g/l at 37 \u00b0C (99 \u00b0F) - OECD Test Guideline 105 -. slightly soluble", "partition_coefficient": "Not applicable for inorganic substances. n-octanol/water", "autoignition": "does not ignite. temperature", "decomposition": "No data available. temperature", "viscosity": "No data available", "explosive_properties": "No data available", "oxidizing_properties": "No data available", "bulk_density": "No data available", "particle_size": "No data available", "statements": [{"code": "H314", "statement": "Causes severe skin burns and eye damage.. Precautionary statement(s)"}, {"code": "P260", "statement": "Do not breathe dusts or mists."}, {"code": "P264", "statement": "Wash skin thoroughly after handling."}, {"code": "P280", "statement": "Wear protective gloves/ protective clothing/ eye protection/ face. protection."}, {"code": "P301 + P330 + P331", "statement": "IF SWALLOWED: Rinse mouth. Do NOT induce vomiting."}, {"code": "P303 + P361 + P353", "statement": "IF ON SKIN (or hair): Remove/ Take off immediately all. contaminated clothing. Rinse skin with water/ shower."}, {"code": "P304 + P340", "statement": "IF INHALED: Remove victim to fresh air and keep at rest in a. position comfortable for breathing."}, {"code": "P305 + P351 + P338", "statement": "IF IN EYES: Rinse cautiously with water for several minutes.. Remove contact lenses, if present and easy to do. Continue. rinsing."}, {"code": "P310", "statement": "Immediately call a POISON CENTER/ doctor."}, {"code": "P321", "statement": "Specific treatment (see supplemental first aid instructions on. this label)."}, {"code": "P363", "statement": "Wash contaminated clothing before reuse."}, {"code": "P405", "statement": "Store locked up."}, {"code": "P501", "statement": "Dispose of contents/ container to an approved waste disposal. plant."}, {"code": "H412", "statement": "Harmful to aquatic life with long lasting effects.. Precautionary statement(s)"}, {"code": "P273", "statement": "Avoid release to the environment."}, {"code": "P501", "statement": "Dispose of contents/ container to an approved waste disposal. plant."}, {"code": "H290", "statement": "May be corrosive to metals."}, {"code": "H301 + H311", "statement": "Toxic if swallowed or in contact with skin."}, {"code": "H314", "statement": "Causes severe skin burns and eye damage."}, {"code": "H317", "statement": "May cause an allergic skin reaction."}, {"code": "H330", "statement": "Fatal if inhaled."}, {"code": "H335", "statement": "May cause respiratory irritation."}, {"code": "H402", "statement": "Harmful to aquatic life.. Precautionary statement(s)"}, {"code": "P234", "statement": "Keep only in original container."}, {"code": "P260", "statement": "Do not breathe mist or vapors."}, {"code": "P264", "statement": "Wash skin thoroughly after handling."}, {"code": "P270", "statement": "Do not eat, drink or smoke when using this product."}, {"code": "P271", "statement": "Use only outdoors or in a well-ventilated area."}, {"code": "P272", "statement": "Contaminated work clothing must not be allowed out of the. workplace."}, {"code": "P273", "statement": "Avoid release to the environment."}, {"code": "P280", "statement": "Wear protective gloves/ protective clothing/ eye protection/ face. protection."}, {"code": "P284", "statement": "Wear respiratory protection."}, {"code": "P301 + P310 + P330", "statement": "IF SWALLOWED: Immediately call a POISON CENTER/ doctor.. Rinse mouth."}, {"code": "P301 + P330 + P331", "statement": "IF SWALLOWED: Rinse mouth. Do NOT induce vomiting."}, {"code": "P303 + P361 + P353", "statement": "IF ON SKIN (or hair): Take off immediately all contaminated. clothing. Rinse skin with water/ shower."}, {"code": "P304 + P340 + P310", "statement": "IF INHALED: Remove person to fresh air and keep comfortable. for breathing. Immediately call a POISON CENTER/ doctor."}, {"code": "P305 + P351 + P338 +", "statement": "IF IN EYES: Rinse cautiously with water for several minutes."}, {"code": "P310", "statement": "Remove contact lenses, if present and easy to do. Continue. rinsing. Immediately call a POISON CENTER/ doctor."}, {"code": "P333 + P313", "statement": "If skin irritation or rash occurs: Get medical advice/ attention."}, {"code": "P362", "statement": "Take off contaminated clothing and wash before reuse."}, {"code": "P390", "statement": "Absorb spillage to prevent material damage."}, {"code": "P403 + P233", "statement": "Store in a well-ventilated place. Keep container tightly closed."}, {"code": "P405", "statement": "Store locked up."}, {"code": "P406", "statement": "Store in corrosive resistant container with a resistant inner. liner."}, {"code": "P501", "statement": "Dispose of contents/ container to an approved waste disposal. plant."}, {"code": "H411", "statement": "Toxic to aquatic life with long lasting effects.. Precautionary statement(s)"}, {"code": "P273", "statement": "Avoid release to the environment."}, {"code": "P391", "statement": "Collect spillage."}, {"code": "P501", "statement": "Dispose of contents/ container to an approved waste disposal. plant."}], "canonical_smiles": "O=[Si]=O", "isomeric_smiles": "O=[Si]=O"}, {"id": 15237, "product_number": "399361", "CAS_number": "3128-07-2", "product_name": "6-Oxoheptanoic acid", "product_brand": "Aldrich", "supplier": {"company": ":  Sigma-Aldrich Inc.", "location": "3050 SPRUCE ST. ST. LOUIS MO  63103. UNITED STATES", "tel": ":  +1 314 771-5765", "fax": ":  +1 800 325-5052"}, "formula": ":  C7H12O3", "mw": ":  144.17 g/mol", "ec": ":  221-512-2. No components need to be disclosed according to the applicable regulations.. For the full text of the H-Statements mentioned in this Section, see Section 16.", "appearance": "Form: solid. Color: white", "odor": "No data available", "pH": "No data available", "melting_point": "Melting point/range: 35 - 37 \u00b0C (95 - 99 \u00b0F) - lit.. point/freezing point", "flash_point": "113 \u00b0C (235 \u00b0F) - closed cup", "evaporation_rate": "No data available", "flammability": "No data available. gas)", "vapor_pressure": "No data available", "vapor_density": "No data available", "density": "1.059 g/cm3 at 25 \u00b0C (77 \u00b0F) - lit.. Relative density. No data available", "water_solubility": "No data available", "partition_coefficient": "No data available. n-octanol/water", "autoignition": "No data available. temperature", "decomposition": "No data available. temperature", "viscosity": "No data available", "explosive_properties": "No data available", "oxidizing_properties": "No data available", "bulk_density": "No data available", "particle_size": "No data available", "statements": [{"code": "H314", "statement": "Causes severe skin burns and eye damage.. Precautionary statement(s)"}, {"code": "P260", "statement": "Do not breathe dusts or mists."}, {"code": "P264", "statement": "Wash skin thoroughly after handling."}, {"code": "P280", "statement": "Wear protective gloves/ protective clothing/ eye protection/ face. protection."}, {"code": "P301 + P330 + P331", "statement": "IF SWALLOWED: Rinse mouth. Do NOT induce vomiting."}, {"code": "P303 + P361 + P353", "statement": "IF ON SKIN (or hair): Remove/ Take off immediately all. contaminated clothing. Rinse skin with water/ shower."}, {"code": "P304 + P340", "statement": "IF INHALED: Remove victim to fresh air and keep at rest in a. position comfortable for breathing."}, {"code": "P305 + P351 + P338", "statement": "IF IN EYES: Rinse cautiously with water for several minutes.. Remove contact lenses, if present and easy to do. Continue. rinsing."}, {"code": "P310", "statement": "Immediately call a POISON CENTER/ doctor."}, {"code": "P321", "statement": "Specific treatment (see supplemental first aid instructions on. this label)."}, {"code": "P363", "statement": "Wash contaminated clothing before reuse."}, {"code": "P405", "statement": "Store locked up."}, {"code": "P501", "statement": "Dispose of contents/ container to an approved waste disposal. plant."}, {"code": "H412", "statement": "Harmful to aquatic life with long lasting effects.. Precautionary statement(s)"}, {"code": "P273", "statement": "Avoid release to the environment."}, {"code": "P501", "statement": "Dispose of contents/ container to an approved waste disposal. plant."}, {"code": "H290", "statement": "May be corrosive to metals."}, {"code": "H301 + H311", "statement": "Toxic if swallowed or in contact with skin."}, {"code": "H314", "statement": "Causes severe skin burns and eye damage."}, {"code": "H317", "statement": "May cause an allergic skin reaction."}, {"code": "H330", "statement": "Fatal if inhaled."}, {"code": "H335", "statement": "May cause respiratory irritation."}, {"code": "H402", "statement": "Harmful to aquatic life.. Precautionary statement(s)"}, {"code": "P234", "statement": "Keep only in original container."}, {"code": "P260", "statement": "Do not breathe mist or vapors."}, {"code": "P264", "statement": "Wash skin thoroughly after handling."}, {"code": "P270", "statement": "Do not eat, drink or smoke when using this product."}, {"code": "P271", "statement": "Use only outdoors or in a well-ventilated area."}, {"code": "P272", "statement": "Contaminated work clothing must not be allowed out of the. workplace."}, {"code": "P273", "statement": "Avoid release to the environment."}, {"code": "P280", "statement": "Wear protective gloves/ protective clothing/ eye protection/ face. protection."}, {"code": "P284", "statement": "Wear respiratory protection."}, {"code": "P301 + P310 + P330", "statement": "IF SWALLOWED: Immediately call a POISON CENTER/ doctor.. Rinse mouth."}, {"code": "P301 + P330 + P331", "statement": "IF SWALLOWED: Rinse mouth. Do NOT induce vomiting."}, {"code": "P303 + P361 + P353", "statement": "IF ON SKIN (or hair): Take off immediately all contaminated. clothing. Rinse skin with water/ shower."}, {"code": "P304 + P340 + P310", "statement": "IF INHALED: Remove person to fresh air and keep comfortable. for breathing. Immediately call a POISON CENTER/ doctor."}, {"code": "P305 + P351 + P338 +", "statement": "IF IN EYES: Rinse cautiously with water for several minutes."}, {"code": "P310", "statement": "Remove contact lenses, if present and easy to do. Continue. rinsing. Immediately call a POISON CENTER/ doctor."}, {"code": "P333 + P313", "statement": "If skin irritation or rash occurs: Get medical advice/ attention."}, {"code": "P362", "statement": "Take off contaminated clothing and wash before reuse."}, {"code": "P390", "statement": "Absorb spillage to prevent material damage."}, {"code": "P403 + P233", "statement": "Store in a well-ventilated place. Keep container tightly closed."}, {"code": "P405", "statement": "Store locked up."}, {"code": "P406", "statement": "Store in corrosive resistant container with a resistant inner. liner."}, {"code": "P501", "statement": "Dispose of contents/ container to an approved waste disposal. plant."}, {"code": "H411", "statement": "Toxic to aquatic life with long lasting effects.. Precautionary statement(s)"}, {"code": "P273", "statement": "Avoid release to the environment."}, {"code": "P391", "statement": "Collect spillage."}, {"code": "P501", "statement": "Dispose of contents/ container to an approved waste disposal. plant."}], "canonical_smiles": "CC(=O)CCCCC(=O)O", "isomeric_smiles": "CC(=O)CCCCC(=O)O"}, {"id": 3369, "product_number": "31254", "CAS_number": "14459-95-1", "product_name": "Potassium hexacyanoferrate(II) trihydrate", "product_brand": "SIGALD", "supplier": {"company": ":  Sigma-Aldrich Inc.", "location": "3050 SPRUCE ST. ST. LOUIS MO  63103. UNITED STATES", "tel": ":  +1 314 771-5765", "fax": ":  +1 800 325-5052"}, "formula": ":  C6FeK4N6\u00b73H2O", "mw": ":  422.39 g/mol", "ec": ":  237-722-2. TabulaTable(extraction_method=stream, page_number=2, top=255.0, bottom=313.0, left=80.0, right=558.0, width=478.0, height=58.0, data=\n+-------------------------------+----------------------------------------------+-------------+\n|Component                      |Classification                                |Concentration|\n+-------------------------------+----------------------------------------------+-------------+\n|Tetrapotassium hexacyanoferrate|                                              |             |\n+-------------------------------+----------------------------------------------+-------------+\n|Tetrapotassium hexacyanoferrate|Aquatic Acute 3; Aquatic Chronic 3; H402, H412|<= 100 %     |\n+-------------------------------+----------------------------------------------+-------------+\n, additional_ops=['strip_text', 'merge_rows', 'pull_down_to_empty'])", "appearance": "Form: crystalline. Color: light yellow", "odor": "No data available", "pH": "8.0 - 10 at 211 g/l at 25 \u00b0C (77 \u00b0F)", "melting_point": "Melting point/range: 70 \u00b0C (158 \u00b0F) - lit.. point/freezing point", "flash_point": "()No data available", "evaporation_rate": "No data available", "flammability": "No data available. gas)", "vapor_pressure": "No data available", "vapor_density": "No data available", "density": "1.850 g/cm3. Relative density. No data available", "water_solubility": "211 g/l at 20 \u00b0C (68 \u00b0F)", "partition_coefficient": "No data available. n-octanol/water", "autoignition": "No data available. temperature", "decomposition": "No data available. temperature", "viscosity": "No data available", "explosive_properties": "No data available", "oxidizing_properties": "No data available", "bulk_density": "No data available", "particle_size": "No data available", "statements": [{"code": "H314", "statement": "Causes severe skin burns and eye damage.. Precautionary statement(s)"}, {"code": "P260", "statement": "Do not breathe dusts or mists."}, {"code": "P264", "statement": "Wash skin thoroughly after handling."}, {"code": "P280", "statement": "Wear protective gloves/ protective clothing/ eye protection/ face. protection."}, {"code": "P301 + P330 + P331", "statement": "IF SWALLOWED: Rinse mouth. Do NOT induce vomiting."}, {"code": "P303 + P361 + P353", "statement": "IF ON SKIN (or hair): Remove/ Take off immediately all. contaminated clothing. Rinse skin with water/ shower."}, {"code": "P304 + P340", "statement": "IF INHALED: Remove victim to fresh air and keep at rest in a. position comfortable for breathing."}, {"code": "P305 + P351 + P338", "statement": "IF IN EYES: Rinse cautiously with water for several minutes.. Remove contact lenses, if present and easy to do. Continue. rinsing."}, {"code": "P310", "statement": "Immediately call a POISON CENTER/ doctor."}, {"code": "P321", "statement": "Specific treatment (see supplemental first aid instructions on. this label)."}, {"code": "P363", "statement": "Wash contaminated clothing before reuse."}, {"code": "P405", "statement": "Store locked up."}, {"code": "P501", "statement": "Dispose of contents/ container to an approved waste disposal. plant."}, {"code": "H412", "statement": "Harmful to aquatic life with long lasting effects.. Precautionary statement(s)"}, {"code": "P273", "statement": "Avoid release to the environment."}, {"code": "P501", "statement": "Dispose of contents/ container to an approved waste disposal. plant."}, {"code": "H290", "statement": "May be corrosive to metals."}, {"code": "H301 + H311", "statement": "Toxic if swallowed or in contact with skin."}, {"code": "H314", "statement": "Causes severe skin burns and eye damage."}, {"code": "H317", "statement": "May cause an allergic skin reaction."}, {"code": "H330", "statement": "Fatal if inhaled."}, {"code": "H335", "statement": "May cause respiratory irritation."}, {"code": "H402", "statement": "Harmful to aquatic life.. Precautionary statement(s)"}, {"code": "P234", "statement": "Keep only in original container."}, {"code": "P260", "statement": "Do not breathe mist or vapors."}, {"code": "P264", "statement": "Wash skin thoroughly after handling."}, {"code": "P270", "statement": "Do not eat, drink or smoke when using this product."}, {"code": "P271", "statement": "Use only outdoors or in a well-ventilated area."}, {"code": "P272", "statement": "Contaminated work clothing must not be allowed out of the. workplace."}, {"code": "P273", "statement": "Avoid release to the environment."}, {"code": "P280", "statement": "Wear protective gloves/ protective clothing/ eye protection/ face. protection."}, {"code": "P284", "statement": "Wear respiratory protection."}, {"code": "P301 + P310 + P330", "statement": "IF SWALLOWED: Immediately call a POISON CENTER/ doctor.. Rinse mouth."}, {"code": "P301 + P330 + P331", "statement": "IF SWALLOWED: Rinse mouth. Do NOT induce vomiting."}, {"code": "P303 + P361 + P353", "statement": "IF ON SKIN (or hair): Take off immediately all contaminated. clothing. Rinse skin with water/ shower."}, {"code": "P304 + P340 + P310", "statement": "IF INHALED: Remove person to fresh air and keep comfortable. for breathing. Immediately call a POISON CENTER/ doctor."}, {"code": "P305 + P351 + P338 +", "statement": "IF IN EYES: Rinse cautiously with water for several minutes."}, {"code": "P310", "statement": "Remove contact lenses, if present and easy to do. Continue. rinsing. Immediately call a POISON CENTER/ doctor."}, {"code": "P333 + P313", "statement": "If skin irritation or rash occurs: Get medical advice/ attention."}, {"code": "P362", "statement": "Take off contaminated clothing and wash before reuse."}, {"code": "P390", "statement": "Absorb spillage to prevent material damage."}, {"code": "P403 + P233", "statement": "Store in a well-ventilated place. Keep container tightly closed."}, {"code": "P405", "statement": "Store locked up."}, {"code": "P406", "statement": "Store in corrosive resistant container with a resistant inner. liner."}, {"code": "P501", "statement": "Dispose of contents/ container to an approved waste disposal. plant."}, {"code": "H411", "statement": "Toxic to aquatic life with long lasting effects.. Precautionary statement(s)"}, {"code": "P273", "statement": "Avoid release to the environment."}, {"code": "P391", "statement": "Collect spillage."}, {"code": "P501", "statement": "Dispose of contents/ container to an approved waste disposal. plant."}], "canonical_smiles": "No data available", "isomeric_smiles": "No data available"}, {"id": 36793, "product_number": "64270", "CAS_number": "124-63-0", "product_name": "Methanesulfonyl chloride", "product_brand": "Sigma-Aldrich", "supplier": {"company": ":  Sigma-Aldrich Inc.", "location": "3050 SPRUCE ST. ST. LOUIS MO  63103. UNITED STATES", "tel": ":  +1 314 771-5765", "fax": ":  +1 800 325-5052"}, "formula": ":  CH3ClO2S", "mw": ":  114.55 g/mol", "ec": ":  204-706-1. TabulaTable(extraction_method=stream, page_number=3, top=78.0, bottom=209.0, left=80.0, right=558.0, width=478.0, height=131.0, data=\n+------------------------------+---------------------------------------------------------------------------------------------------------------------------------------------------------------------------------+---------------+\n|Component                     |Classification                                                                                                                                                                   |Concentration  |\n+------------------------------+---------------------------------------------------------------------------------------------------------------------------------------------------------------------------------+---------------+\n|methanesulphonic acid chloride|                                                                                                                                                                                 |               |\n+------------------------------+---------------------------------------------------------------------------------------------------------------------------------------------------------------------------------+---------------+\n|methanesulphonic acid chloride|Met. Corr. 1; Acute Tox. 3; Acute Tox. 1; Acute Tox. 3; Skin Corr. 1B; Eye Dam. 1; Skin Sens. 1; STOT SE 3; Aquatic Acute 3; H290, H301, H330, H311, H314, H318, H317, H335, H402|<= 100 %       |\n+------------------------------+---------------------------------------------------------------------------------------------------------------------------------------------------------------------------------+---------------+\n, additional_ops=['strip_text', 'merge_rows', 'pull_down_to_empty'])", "appearance": "Form: liquid. Color: colorless", "odor": "No data available", "pH": "No data available", "melting_point": "Melting point: -32 \u00b0C (-26 \u00b0F). point/freezing point", "flash_point": "113 \u00b0C (235 \u00b0F) - closed cup", "evaporation_rate": "No data available", "flammability": "No data available. gas)", "vapor_pressure": "12 hPa at 53 \u00b0C (127 \u00b0F)", "vapor_density": "3.9", "density": "1.48 g/mL at 25 \u00b0C (77 \u00b0F). Relative density. No data available", "water_solubility": "insoluble, (slow decomposition)", "partition_coefficient": "Not applicable. n-octanol/water", "autoignition": "435 - 436 \u00b0C (815 - 817 \u00b0F) at 1,022 hPa. temperature", "decomposition": "No data available. temperature", "viscosity": "No data available", "explosive_properties": "No data available", "oxidizing_properties": "No data available", "bulk_density": "No data available", "particle_size": "No data available", "statements": [{"code": "H314", "statement": "Causes severe skin burns and eye damage.. Precautionary statement(s)"}, {"code": "P260", "statement": "Do not breathe dusts or mists."}, {"code": "P264", "statement": "Wash skin thoroughly after handling."}, {"code": "P280", "statement": "Wear protective gloves/ protective clothing/ eye protection/ face. protection."}, {"code": "P301 + P330 + P331", "statement": "IF SWALLOWED: Rinse mouth. Do NOT induce vomiting."}, {"code": "P303 + P361 + P353", "statement": "IF ON SKIN (or hair): Remove/ Take off immediately all. contaminated clothing. Rinse skin with water/ shower."}, {"code": "P304 + P340", "statement": "IF INHALED: Remove victim to fresh air and keep at rest in a. position comfortable for breathing."}, {"code": "P305 + P351 + P338", "statement": "IF IN EYES: Rinse cautiously with water for several minutes.. Remove contact lenses, if present and easy to do. Continue. rinsing."}, {"code": "P310", "statement": "Immediately call a POISON CENTER/ doctor."}, {"code": "P321", "statement": "Specific treatment (see supplemental first aid instructions on. this label)."}, {"code": "P363", "statement": "Wash contaminated clothing before reuse."}, {"code": "P405", "statement": "Store locked up."}, {"code": "P501", "statement": "Dispose of contents/ container to an approved waste disposal. plant."}, {"code": "H412", "statement": "Harmful to aquatic life with long lasting effects.. Precautionary statement(s)"}, {"code": "P273", "statement": "Avoid release to the environment."}, {"code": "P501", "statement": "Dispose of contents/ container to an approved waste disposal. plant."}, {"code": "H290", "statement": "May be corrosive to metals."}, {"code": "H301 + H311", "statement": "Toxic if swallowed or in contact with skin."}, {"code": "H314", "statement": "Causes severe skin burns and eye damage."}, {"code": "H317", "statement": "May cause an allergic skin reaction."}, {"code": "H330", "statement": "Fatal if inhaled."}, {"code": "H335", "statement": "May cause respiratory irritation."}, {"code": "H402", "statement": "Harmful to aquatic life.. Precautionary statement(s)"}, {"code": "P234", "statement": "Keep only in original container."}, {"code": "P260", "statement": "Do not breathe mist or vapors."}, {"code": "P264", "statement": "Wash skin thoroughly after handling."}, {"code": "P270", "statement": "Do not eat, drink or smoke when using this product."}, {"code": "P271", "statement": "Use only outdoors or in a well-ventilated area."}, {"code": "P272", "statement": "Contaminated work clothing must not be allowed out of the. workplace."}, {"code": "P273", "statement": "Avoid release to the environment."}, {"code": "P280", "statement": "Wear protective gloves/ protective clothing/ eye protection/ face. protection."}, {"code": "P284", "statement": "Wear respiratory protection."}, {"code": "P301 + P310 + P330", "statement": "IF SWALLOWED: Immediately call a POISON CENTER/ doctor.. Rinse mouth."}, {"code": "P301 + P330 + P331", "statement": "IF SWALLOWED: Rinse mouth. Do NOT induce vomiting."}, {"code": "P303 + P361 + P353", "statement": "IF ON SKIN (or hair): Take off immediately all contaminated. clothing. Rinse skin with water/ shower."}, {"code": "P304 + P340 + P310", "statement": "IF INHALED: Remove person to fresh air and keep comfortable. for breathing. Immediately call a POISON CENTER/ doctor."}, {"code": "P305 + P351 + P338 +", "statement": "IF IN EYES: Rinse cautiously with water for several minutes."}, {"code": "P310", "statement": "Remove contact lenses, if present and easy to do. Continue. rinsing. Immediately call a POISON CENTER/ doctor."}, {"code": "P333 + P313", "statement": "If skin irritation or rash occurs: Get medical advice/ attention."}, {"code": "P362", "statement": "Take off contaminated clothing and wash before reuse."}, {"code": "P390", "statement": "Absorb spillage to prevent material damage."}, {"code": "P403 + P233", "statement": "Store in a well-ventilated place. Keep container tightly closed."}, {"code": "P405", "statement": "Store locked up."}, {"code": "P406", "statement": "Store in corrosive resistant container with a resistant inner. liner."}, {"code": "P501", "statement": "Dispose of contents/ container to an approved waste disposal. plant."}, {"code": "H411", "statement": "Toxic to aquatic life with long lasting effects.. Precautionary statement(s)"}, {"code": "P273", "statement": "Avoid release to the environment."}, {"code": "P391", "statement": "Collect spillage."}, {"code": "P501", "statement": "Dispose of contents/ container to an approved waste disposal. plant."}], "canonical_smiles": "CS(=O)(=O)Cl", "isomeric_smiles": "CS(=O)(=O)Cl"}, {"id": 2993, "product_number": "S942952", "CAS_number": "36761-80-5", "product_name": "N-(2-ANTHRACENYL)ACETAMIDE", "product_brand": "Aldrich", "supplier": {"company": ":  Sigma-Aldrich Inc.", "location": "3050 SPRUCE ST. ST. LOUIS MO  63103. UNITED STATES", "tel": ":  +1 314 771-5765", "fax": ":  +1 800 325-5052"}, "formula": ":  C16H13NO", "mw": ":  235.29 g/mol", "ec": "No data available", "appearance": "No data available", "odor": "No data available", "pH": "No data available", "melting_point": "No data available", "flash_point": "No data available", "evaporation_rate": "No data available", "flammability": "No data available", "vapor_pressure": "No data available", "vapor_density": "No data available", "density": "No data available", "water_solubility": "No data available", "partition_coefficient": "No data available", "autoignition": "No data available", "decomposition": "No data available", "viscosity": "No data available", "explosive_properties": "No data available", "oxidizing_properties": "No data available", "bulk_density": "No data available", "particle_size": "No data available", "statements": [{"code": "H314", "statement": "Causes severe skin burns and eye damage.. Precautionary statement(s)"}, {"code": "P260", "statement": "Do not breathe dusts or mists."}, {"code": "P264", "statement": "Wash skin thoroughly after handling."}, {"code": "P280", "statement": "Wear protective gloves/ protective clothing/ eye protection/ face. protection."}, {"code": "P301 + P330 + P331", "statement": "IF SWALLOWED: Rinse mouth. Do NOT induce vomiting."}, {"code": "P303 + P361 + P353", "statement": "IF ON SKIN (or hair): Remove/ Take off immediately all. contaminated clothing. Rinse skin with water/ shower."}, {"code": "P304 + P340", "statement": "IF INHALED: Remove victim to fresh air and keep at rest in a. position comfortable for breathing."}, {"code": "P305 + P351 + P338", "statement": "IF IN EYES: Rinse cautiously with water for several minutes.. Remove contact lenses, if present and easy to do. Continue. rinsing."}, {"code": "P310", "statement": "Immediately call a POISON CENTER/ doctor."}, {"code": "P321", "statement": "Specific treatment (see supplemental first aid instructions on. this label)."}, {"code": "P363", "statement": "Wash contaminated clothing before reuse."}, {"code": "P405", "statement": "Store locked up."}, {"code": "P501", "statement": "Dispose of contents/ container to an approved waste disposal. plant."}, {"code": "H412", "statement": "Harmful to aquatic life with long lasting effects.. Precautionary statement(s)"}, {"code": "P273", "statement": "Avoid release to the environment."}, {"code": "P501", "statement": "Dispose of contents/ container to an approved waste disposal. plant."}, {"code": "H290", "statement": "May be corrosive to metals."}, {"code": "H301 + H311", "statement": "Toxic if swallowed or in contact with skin."}, {"code": "H314", "statement": "Causes severe skin burns and eye damage."}, {"code": "H317", "statement": "May cause an allergic skin reaction."}, {"code": "H330", "statement": "Fatal if inhaled."}, {"code": "H335", "statement": "May cause respiratory irritation."}, {"code": "H402", "statement": "Harmful to aquatic life.. Precautionary statement(s)"}, {"code": "P234", "statement": "Keep only in original container."}, {"code": "P260", "statement": "Do not breathe mist or vapors."}, {"code": "P264", "statement": "Wash skin thoroughly after handling."}, {"code": "P270", "statement": "Do not eat, drink or smoke when using this product."}, {"code": "P271", "statement": "Use only outdoors or in a well-ventilated area."}, {"code": "P272", "statement": "Contaminated work clothing must not be allowed out of the. workplace."}, {"code": "P273", "statement": "Avoid release to the environment."}, {"code": "P280", "statement": "Wear protective gloves/ protective clothing/ eye protection/ face. protection."}, {"code": "P284", "statement": "Wear respiratory protection."}, {"code": "P301 + P310 + P330", "statement": "IF SWALLOWED: Immediately call a POISON CENTER/ doctor.. Rinse mouth."}, {"code": "P301 + P330 + P331", "statement": "IF SWALLOWED: Rinse mouth. Do NOT induce vomiting."}, {"code": "P303 + P361 + P353", "statement": "IF ON SKIN (or hair): Take off immediately all contaminated. clothing. Rinse skin with water/ shower."}, {"code": "P304 + P340 + P310", "statement": "IF INHALED: Remove person to fresh air and keep comfortable. for breathing. Immediately call a POISON CENTER/ doctor."}, {"code": "P305 + P351 + P338 +", "statement": "IF IN EYES: Rinse cautiously with water for several minutes."}, {"code": "P310", "statement": "Remove contact lenses, if present and easy to do. Continue. rinsing. Immediately call a POISON CENTER/ doctor."}, {"code": "P333 + P313", "statement": "If skin irritation or rash occurs: Get medical advice/ attention."}, {"code": "P362", "statement": "Take off contaminated clothing and wash before reuse."}, {"code": "P390", "statement": "Absorb spillage to prevent material damage."}, {"code": "P403 + P233", "statement": "Store in a well-ventilated place. Keep container tightly closed."}, {"code": "P405", "statement": "Store locked up."}, {"code": "P406", "statement": "Store in corrosive resistant container with a resistant inner. liner."}, {"code": "P501", "statement": "Dispose of contents/ container to an approved waste disposal. plant."}, {"code": "H411", "statement": "Toxic to aquatic life with long lasting effects.. Precautionary statement(s)"}, {"code": "P273", "statement": "Avoid release to the environment."}, {"code": "P391", "statement": "Collect spillage."}, {"code": "P501", "statement": "Dispose of contents/ container to an approved waste disposal. plant."}], "canonical_smiles": "CC(=O)NC1=CC2=CC3=CC=CC=C3C=C2C=C1", "isomeric_smiles": "CC(=O)NC1=CC2=CC3=CC=CC=C3C=C2C=C1"}]