[{"id": 694, "product_number": "701688", "CAS_number": "889949-09-1", "product_name": "1-(Boc-amino)-1-aminomethyl cyclopentane", "product_brand": "Aldrich", "supplier": {"company": ":  Sigma-Aldrich Inc.", "location": "3050 SPRUCE ST. ST. LOUIS MO  63103. UNITED STATES", "tel": ":  +1 314 771-5765", "fax": ":  +1 800 325-5052"}, "formula": ":  C11H22N2O2", "mw": ":  214.30 g/mol", "ec": "No data available", "appearance": "Form: powder. Color: beige", "odor": "No data available", "pH": "No data available", "melting_point": "Melting point/range: 72 - 78 \u00b0C (162 - 172 \u00b0F). point/freezing point", "flash_point": "()No data available", "evaporation_rate": "No data available", "flammability": "No data available. gas)", "vapor_pressure": "No data available", "vapor_density": "No data available", "density": "No data available. Relative density. No data available", "water_solubility": "No data available", "partition_coefficient": "No data available. n-octanol/water", "autoignition": "No data available. temperature", "decomposition": "No data available. temperature", "viscosity": "No data available", "explosive_properties": "No data available", "oxidizing_properties": "No data available", "bulk_density": "No data available", "particle_size": "No data available", "statements": [{"code": "H318", "statement": "Causes serious eye damage.. Precautionary statement(s)"}, {"code": "P280", "statement": "Wear protective gloves/ eye protection/ face protection."}, {"code": "P305 + P351 + P338", "statement": "IF IN EYES: Rinse cautiously with water for several minutes.. Remove contact lenses, if present and easy to do. Continue. rinsing."}, {"code": "P310", "statement": "Immediately call a POISON CENTER/ doctor."}, {"code": "H302", "statement": "Harmful if swallowed."}, {"code": "H411", "statement": "Toxic to aquatic life with long lasting effects.. Precautionary statement(s)"}, {"code": "P264", "statement": "Wash skin thoroughly after handling."}, {"code": "P270", "statement": "Do not eat, drink or smoke when using this product."}, {"code": "P273", "statement": "Avoid release to the environment."}, {"code": "P301 + P312", "statement": "IF SWALLOWED: Call a POISON CENTER/ doctor if you feel. unwell."}, {"code": "P330", "statement": "Rinse mouth."}, {"code": "P391", "statement": "Collect spillage."}, {"code": "P501", "statement": "Dispose of contents/ container to an approved waste disposal. plant."}, {"code": "H302", "statement": "Harmful if swallowed.. Precautionary statement(s)"}, {"code": "P264", "statement": "Wash skin thoroughly after handling."}, {"code": "H302 + H312", "statement": "Harmful if swallowed or in contact with skin.. Precautionary statement(s)"}, {"code": "P264", "statement": "Wash skin thoroughly after handling."}, {"code": "P270", "statement": "Do not eat, drink or smoke when using this product."}, {"code": "P280", "statement": "Wear protective gloves/ protective clothing."}, {"code": "P301 + P312 + P330", "statement": "IF SWALLOWED: Call a POISON CENTER/ doctor if you feel. unwell. Rinse mouth."}, {"code": "P302 + P352 + P312", "statement": "IF ON SKIN: Wash with plenty of water.Call a POISON CENTER/. doctor if you feel unwell."}, {"code": "P363", "statement": "Wash contaminated clothing before reuse."}, {"code": "P501", "statement": "Dispose of contents/ container to an approved waste disposal. plant."}, {"code": "H317", "statement": "May cause an allergic skin reaction."}, {"code": "H334", "statement": "May cause allergy or asthma symptoms or breathing difficulties. if inhaled.. Precautionary statement(s)"}, {"code": "P261", "statement": "Avoid breathing dust."}, {"code": "P272", "statement": "Contaminated work clothing must not be allowed out of the. workplace."}, {"code": "P280", "statement": "Wear protective gloves."}, {"code": "P285", "statement": "In case of inadequate ventilation wear respiratory protection."}, {"code": "P302 + P352", "statement": "IF ON SKIN: Wash with plenty of soap and water."}, {"code": "P304 + P341", "statement": "IF INHALED: If breathing is difficult, remove person to fresh air. and keep comfortable for breathing."}, {"code": "P333 + P313", "statement": "If skin irritation or rash occurs: Get medical advice/ attention."}, {"code": "P342 + P311", "statement": "If experiencing respiratory symptoms: Call a POISON CENTER/. doctor."}, {"code": "P363", "statement": "Wash contaminated clothing before reuse."}, {"code": "P501", "statement": "Dispose of contents/ container to an approved waste disposal. plant."}, {"code": "H413", "statement": "May cause long lasting harmful effects to aquatic life.. Precautionary statement(s)"}, {"code": "P273", "statement": "Avoid release to the environment."}, {"code": "P501", "statement": "Dispose of contents/ container to an approved waste disposal. plant."}], "canonical_smiles": "CC(C)(C)OC(=O)NC1(CCCC1)CN", "isomeric_smiles": "CC(C)(C)OC(=O)NC1(CCCC1)CN"}, {"id": 1979, "product_number": "S431877", "CAS_number": "22135-53-1", "product_name": "4-Bromo-\u03b1-propylbenzyl alcohol", "product_brand": "Aldrich", "supplier": {"company": ":  Sigma-Aldrich Inc.", "location": "3050 SPRUCE ST. ST. LOUIS MO  63103. UNITED STATES", "tel": ":  +1 314 771-5765", "fax": ":  +1 800 325-5052"}, "formula": ":  C10H13BrO", "mw": ":  229.11 g/mol", "ec": ":  244-801-5. TabulaTable(extraction_method=stream, page_number=2, top=321.0, bottom=391.0, left=80.0, right=558.0, width=478.0, height=70.0, data=\n+------------------------------+------------------------------------------------------------------+-------------+\n|Component                     |Classification                                                    |Concentration|\n+------------------------------+------------------------------------------------------------------+-------------+\n|4-Bromo-\u03b1-propylbenzyl alcohol|                                                                  |             |\n+------------------------------+------------------------------------------------------------------+-------------+\n|4-Bromo-\u03b1-propylbenzyl alcohol|Acute Tox. 4; Aquatic Acute 2; Aquatic Chronic 2; H302, H401, H411|<= 100 %     |\n+------------------------------+------------------------------------------------------------------+-------------+\n, additional_ops=['strip_text', 'merge_rows', 'pull_down_to_empty'])", "appearance": "Form: solid", "odor": "No data available", "pH": "No data available", "melting_point": "No data available. point/freezing point", "flash_point": "()No data available", "evaporation_rate": "No data available", "flammability": "No data available. gas)", "vapor_pressure": "No data available", "vapor_density": "No data available", "density": "No data available. Relative density. No data available", "water_solubility": "No data available", "partition_coefficient": "log Pow: 3.743. n-octanol/water", "autoignition": "No data available. temperature", "decomposition": "No data available. temperature", "viscosity": "No data available", "explosive_properties": "No data available", "oxidizing_properties": "No data available", "bulk_density": "No data available", "particle_size": "No data available", "statements": [{"code": "H318", "statement": "Causes serious eye damage.. Precautionary statement(s)"}, {"code": "P280", "statement": "Wear protective gloves/ eye protection/ face protection."}, {"code": "P305 + P351 + P338", "statement": "IF IN EYES: Rinse cautiously with water for several minutes.. Remove contact lenses, if present and easy to do. Continue. rinsing."}, {"code": "P310", "statement": "Immediately call a POISON CENTER/ doctor."}, {"code": "H302", "statement": "Harmful if swallowed."}, {"code": "H411", "statement": "Toxic to aquatic life with long lasting effects.. Precautionary statement(s)"}, {"code": "P264", "statement": "Wash skin thoroughly after handling."}, {"code": "P270", "statement": "Do not eat, drink or smoke when using this product."}, {"code": "P273", "statement": "Avoid release to the environment."}, {"code": "P301 + P312", "statement": "IF SWALLOWED: Call a POISON CENTER/ doctor if you feel. unwell."}, {"code": "P330", "statement": "Rinse mouth."}, {"code": "P391", "statement": "Collect spillage."}, {"code": "P501", "statement": "Dispose of contents/ container to an approved waste disposal. plant."}, {"code": "H302", "statement": "Harmful if swallowed.. Precautionary statement(s)"}, {"code": "P264", "statement": "Wash skin thoroughly after handling."}, {"code": "H302 + H312", "statement": "Harmful if swallowed or in contact with skin.. Precautionary statement(s)"}, {"code": "P264", "statement": "Wash skin thoroughly after handling."}, {"code": "P270", "statement": "Do not eat, drink or smoke when using this product."}, {"code": "P280", "statement": "Wear protective gloves/ protective clothing."}, {"code": "P301 + P312 + P330", "statement": "IF SWALLOWED: Call a POISON CENTER/ doctor if you feel. unwell. Rinse mouth."}, {"code": "P302 + P352 + P312", "statement": "IF ON SKIN: Wash with plenty of water.Call a POISON CENTER/. doctor if you feel unwell."}, {"code": "P363", "statement": "Wash contaminated clothing before reuse."}, {"code": "P501", "statement": "Dispose of contents/ container to an approved waste disposal. plant."}, {"code": "H317", "statement": "May cause an allergic skin reaction."}, {"code": "H334", "statement": "May cause allergy or asthma symptoms or breathing difficulties. if inhaled.. Precautionary statement(s)"}, {"code": "P261", "statement": "Avoid breathing dust."}, {"code": "P272", "statement": "Contaminated work clothing must not be allowed out of the. workplace."}, {"code": "P280", "statement": "Wear protective gloves."}, {"code": "P285", "statement": "In case of inadequate ventilation wear respiratory protection."}, {"code": "P302 + P352", "statement": "IF ON SKIN: Wash with plenty of soap and water."}, {"code": "P304 + P341", "statement": "IF INHALED: If breathing is difficult, remove person to fresh air. and keep comfortable for breathing."}, {"code": "P333 + P313", "statement": "If skin irritation or rash occurs: Get medical advice/ attention."}, {"code": "P342 + P311", "statement": "If experiencing respiratory symptoms: Call a POISON CENTER/. doctor."}, {"code": "P363", "statement": "Wash contaminated clothing before reuse."}, {"code": "P501", "statement": "Dispose of contents/ container to an approved waste disposal. plant."}, {"code": "H413", "statement": "May cause long lasting harmful effects to aquatic life.. Precautionary statement(s)"}, {"code": "P273", "statement": "Avoid release to the environment."}, {"code": "P501", "statement": "Dispose of contents/ container to an approved waste disposal. plant."}], "canonical_smiles": "No data available", "isomeric_smiles": "No data available"}, {"id": 4135, "product_number": "Y0002037", "CAS_number": "57-15-8", "product_name": "Chlorbutanol", "product_brand": "Supelco", "supplier": {"company": ":  Sigma-Aldrich Inc.", "location": "3050 SPRUCE ST. ST. LOUIS MO  63103. UNITED STATES", "tel": ":  +1 314 771-5765", "fax": ":  +1 800 325-5052"}, "formula": ":  C4H7Cl3O", "mw": ":  177.46 g/mol", "ec": ":  200-317-6. TabulaTable(extraction_method=stream, page_number=2, top=242.0, bottom=288.0, left=80.0, right=558.0, width=478.0, height=46.0, data=\n+------------+------------------+-------------+\n|Component   |Classification    |Concentration|\n+------------+------------------+-------------+\n|Chlorbutanol|                  |             |\n+------------+------------------+-------------+\n|Chlorbutanol|Acute Tox. 4; H302|<= 100 %     |\n+------------+------------------+-------------+\n, additional_ops=['strip_text', 'merge_rows', 'pull_down_to_empty'])", "appearance": "Form: crystalline", "odor": "No data available", "pH": "No data available", "melting_point": "Melting point/range: 95 - 98 \u00b0C (203 - 208 \u00b0F). point/freezing point", "flash_point": "()No data available", "evaporation_rate": "No data available", "flammability": "No data available", "vapor_pressure": "No data available", "vapor_density": "No data available", "density": "No data available", "water_solubility": "No data available", "partition_coefficient": "No data available", "autoignition": "No data available", "decomposition": "No data available", "viscosity": "No data available", "explosive_properties": "No data available", "oxidizing_properties": "No data available", "bulk_density": "No data available", "particle_size": "No data available", "statements": [{"code": "H318", "statement": "Causes serious eye damage.. Precautionary statement(s)"}, {"code": "P280", "statement": "Wear protective gloves/ eye protection/ face protection."}, {"code": "P305 + P351 + P338", "statement": "IF IN EYES: Rinse cautiously with water for several minutes.. Remove contact lenses, if present and easy to do. Continue. rinsing."}, {"code": "P310", "statement": "Immediately call a POISON CENTER/ doctor."}, {"code": "H302", "statement": "Harmful if swallowed."}, {"code": "H411", "statement": "Toxic to aquatic life with long lasting effects.. Precautionary statement(s)"}, {"code": "P264", "statement": "Wash skin thoroughly after handling."}, {"code": "P270", "statement": "Do not eat, drink or smoke when using this product."}, {"code": "P273", "statement": "Avoid release to the environment."}, {"code": "P301 + P312", "statement": "IF SWALLOWED: Call a POISON CENTER/ doctor if you feel. unwell."}, {"code": "P330", "statement": "Rinse mouth."}, {"code": "P391", "statement": "Collect spillage."}, {"code": "P501", "statement": "Dispose of contents/ container to an approved waste disposal. plant."}, {"code": "H302", "statement": "Harmful if swallowed.. Precautionary statement(s)"}, {"code": "P264", "statement": "Wash skin thoroughly after handling."}, {"code": "H302 + H312", "statement": "Harmful if swallowed or in contact with skin.. Precautionary statement(s)"}, {"code": "P264", "statement": "Wash skin thoroughly after handling."}, {"code": "P270", "statement": "Do not eat, drink or smoke when using this product."}, {"code": "P280", "statement": "Wear protective gloves/ protective clothing."}, {"code": "P301 + P312 + P330", "statement": "IF SWALLOWED: Call a POISON CENTER/ doctor if you feel. unwell. Rinse mouth."}, {"code": "P302 + P352 + P312", "statement": "IF ON SKIN: Wash with plenty of water.Call a POISON CENTER/. doctor if you feel unwell."}, {"code": "P363", "statement": "Wash contaminated clothing before reuse."}, {"code": "P501", "statement": "Dispose of contents/ container to an approved waste disposal. plant."}, {"code": "H317", "statement": "May cause an allergic skin reaction."}, {"code": "H334", "statement": "May cause allergy or asthma symptoms or breathing difficulties. if inhaled.. Precautionary statement(s)"}, {"code": "P261", "statement": "Avoid breathing dust."}, {"code": "P272", "statement": "Contaminated work clothing must not be allowed out of the. workplace."}, {"code": "P280", "statement": "Wear protective gloves."}, {"code": "P285", "statement": "In case of inadequate ventilation wear respiratory protection."}, {"code": "P302 + P352", "statement": "IF ON SKIN: Wash with plenty of soap and water."}, {"code": "P304 + P341", "statement": "IF INHALED: If breathing is difficult, remove person to fresh air. and keep comfortable for breathing."}, {"code": "P333 + P313", "statement": "If skin irritation or rash occurs: Get medical advice/ attention."}, {"code": "P342 + P311", "statement": "If experiencing respiratory symptoms: Call a POISON CENTER/. doctor."}, {"code": "P363", "statement": "Wash contaminated clothing before reuse."}, {"code": "P501", "statement": "Dispose of contents/ container to an approved waste disposal. plant."}, {"code": "H413", "statement": "May cause long lasting harmful effects to aquatic life.. Precautionary statement(s)"}, {"code": "P273", "statement": "Avoid release to the environment."}, {"code": "P501", "statement": "Dispose of contents/ container to an approved waste disposal. plant."}], "canonical_smiles": "CC(C)(C(Cl)(Cl)Cl)O", "isomeric_smiles": "CC(C)(C(Cl)(Cl)Cl)O"}, {"id": 1959, "product_number": "103799", "CAS_number": "771-61-9", "product_name": "Pentafluorophenol", "product_brand": "Aldrich", "supplier": {"company": ":  Sigma-Aldrich Inc.", "location": "3050 SPRUCE ST. ST. LOUIS MO  63103. UNITED STATES", "tel": ":  +1 314 771-5765", "fax": ":  +1 800 325-5052"}, "formula": ":  C6HF5O", "mw": ":  184.06 g/mol", "ec": ":  212-235-8. TabulaTable(extraction_method=stream, page_number=2, top=343.0, bottom=388.0, left=80.0, right=558.0, width=478.0, height=45.0, data=\n+-----------------+------------------------+-------------+\n|Component        |Classification          |Concentration|\n+-----------------+------------------------+-------------+\n|pentafluorophenol|                        |             |\n+-----------------+------------------------+-------------+\n|pentafluorophenol|Acute Tox. 4; H302, H312|<= 100 %     |\n+-----------------+------------------------+-------------+\n, additional_ops=['strip_text', 'merge_rows', 'pull_down_to_empty'])", "appearance": "Form: solid", "odor": "No data available", "pH": "No data available", "melting_point": "Melting point/range: 34 - 36 \u00b0C (93 - 97 \u00b0F) - lit.. point/freezing point", "flash_point": "72 \u00b0C (162 \u00b0F)", "evaporation_rate": "No data available", "flammability": "No data available. gas)", "vapor_pressure": "No data available", "vapor_density": "No data available", "density": "No data available", "water_solubility": "No data available", "partition_coefficient": "No data available. n-octanol/water", "autoignition": "No data available. temperature", "decomposition": "No data available. temperature", "viscosity": "No data available", "explosive_properties": "No data available", "oxidizing_properties": "No data available", "bulk_density": "No data available", "particle_size": "No data available", "statements": [{"code": "H318", "statement": "Causes serious eye damage.. Precautionary statement(s)"}, {"code": "P280", "statement": "Wear protective gloves/ eye protection/ face protection."}, {"code": "P305 + P351 + P338", "statement": "IF IN EYES: Rinse cautiously with water for several minutes.. Remove contact lenses, if present and easy to do. Continue. rinsing."}, {"code": "P310", "statement": "Immediately call a POISON CENTER/ doctor."}, {"code": "H302", "statement": "Harmful if swallowed."}, {"code": "H411", "statement": "Toxic to aquatic life with long lasting effects.. Precautionary statement(s)"}, {"code": "P264", "statement": "Wash skin thoroughly after handling."}, {"code": "P270", "statement": "Do not eat, drink or smoke when using this product."}, {"code": "P273", "statement": "Avoid release to the environment."}, {"code": "P301 + P312", "statement": "IF SWALLOWED: Call a POISON CENTER/ doctor if you feel. unwell."}, {"code": "P330", "statement": "Rinse mouth."}, {"code": "P391", "statement": "Collect spillage."}, {"code": "P501", "statement": "Dispose of contents/ container to an approved waste disposal. plant."}, {"code": "H302", "statement": "Harmful if swallowed.. Precautionary statement(s)"}, {"code": "P264", "statement": "Wash skin thoroughly after handling."}, {"code": "H302 + H312", "statement": "Harmful if swallowed or in contact with skin.. Precautionary statement(s)"}, {"code": "P264", "statement": "Wash skin thoroughly after handling."}, {"code": "P270", "statement": "Do not eat, drink or smoke when using this product."}, {"code": "P280", "statement": "Wear protective gloves/ protective clothing."}, {"code": "P301 + P312 + P330", "statement": "IF SWALLOWED: Call a POISON CENTER/ doctor if you feel. unwell. Rinse mouth."}, {"code": "P302 + P352 + P312", "statement": "IF ON SKIN: Wash with plenty of water.Call a POISON CENTER/. doctor if you feel unwell."}, {"code": "P363", "statement": "Wash contaminated clothing before reuse."}, {"code": "P501", "statement": "Dispose of contents/ container to an approved waste disposal. plant."}, {"code": "H317", "statement": "May cause an allergic skin reaction."}, {"code": "H334", "statement": "May cause allergy or asthma symptoms or breathing difficulties. if inhaled.. Precautionary statement(s)"}, {"code": "P261", "statement": "Avoid breathing dust."}, {"code": "P272", "statement": "Contaminated work clothing must not be allowed out of the. workplace."}, {"code": "P280", "statement": "Wear protective gloves."}, {"code": "P285", "statement": "In case of inadequate ventilation wear respiratory protection."}, {"code": "P302 + P352", "statement": "IF ON SKIN: Wash with plenty of soap and water."}, {"code": "P304 + P341", "statement": "IF INHALED: If breathing is difficult, remove person to fresh air. and keep comfortable for breathing."}, {"code": "P333 + P313", "statement": "If skin irritation or rash occurs: Get medical advice/ attention."}, {"code": "P342 + P311", "statement": "If experiencing respiratory symptoms: Call a POISON CENTER/. doctor."}, {"code": "P363", "statement": "Wash contaminated clothing before reuse."}, {"code": "P501", "statement": "Dispose of contents/ container to an approved waste disposal. plant."}, {"code": "H413", "statement": "May cause long lasting harmful effects to aquatic life.. Precautionary statement(s)"}, {"code": "P273", "statement": "Avoid release to the environment."}, {"code": "P501", "statement": "Dispose of contents/ container to an approved waste disposal. plant."}], "canonical_smiles": "C1(=C(C(=C(C(=C1F)F)F)F)F)O", "isomeric_smiles": "C1(=C(C(=C(C(=C1F)F)F)F)F)O"}, {"id": 712, "product_number": "PHR2576", "CAS_number": "68373-14-8", "product_name": "Sulbactam", "product_brand": "Sigma-Aldrich", "supplier": {"company": ":  Sigma-Aldrich Inc.", "location": "3050 SPRUCE ST. ST. LOUIS MO  63103. UNITED STATES", "tel": ":  +1 314 771-5765", "fax": ":  +1 800 325-5052"}, "formula": ":  C14H21N3O2S.C4H6O4", "mw": ":  233.24 g/mol", "ec": ":  269-878-2. TabulaTable(extraction_method=stream, page_number=2, top=370.0, bottom=428.0, left=80.0, right=558.0, width=478.0, height=58.0, data=\n+---------+---------------------------------------+-------------+\n|Component|Classification                         |Concentration|\n+---------+---------------------------------------+-------------+\n|sulbactam|                                       |             |\n+---------+---------------------------------------+-------------+\n|sulbactam|Resp. Sens. 1; Skin Sens. 1; H334, H317|<= 100 %     |\n+---------+---------------------------------------+-------------+\n, additional_ops=['strip_text', 'merge_rows', 'pull_down_to_empty'])", "appearance": "Form: solid", "odor": "No data available", "pH": "No data available", "melting_point": "Melting point/range: 148 - 151 \u00b0C (298 - 304 \u00b0F). point/freezing point", "flash_point": "()Not applicable", "evaporation_rate": "No data available", "flammability": "The product is not flammable.. gas)", "vapor_pressure": "No data available", "vapor_density": "No data available", "density": "No data available. Relative density. No data available", "water_solubility": "No data available", "partition_coefficient": "log Pow: -1.394 - Bioaccumulation is not expected.. n-octanol/water", "autoignition": "No data available. temperature", "decomposition": "No data available. temperature", "viscosity": "No data available", "explosive_properties": "No data available", "oxidizing_properties": "No data available", "bulk_density": "No data available", "particle_size": "No data available", "statements": [{"code": "H318", "statement": "Causes serious eye damage.. Precautionary statement(s)"}, {"code": "P280", "statement": "Wear protective gloves/ eye protection/ face protection."}, {"code": "P305 + P351 + P338", "statement": "IF IN EYES: Rinse cautiously with water for several minutes.. Remove contact lenses, if present and easy to do. Continue. rinsing."}, {"code": "P310", "statement": "Immediately call a POISON CENTER/ doctor."}, {"code": "H302", "statement": "Harmful if swallowed."}, {"code": "H411", "statement": "Toxic to aquatic life with long lasting effects.. Precautionary statement(s)"}, {"code": "P264", "statement": "Wash skin thoroughly after handling."}, {"code": "P270", "statement": "Do not eat, drink or smoke when using this product."}, {"code": "P273", "statement": "Avoid release to the environment."}, {"code": "P301 + P312", "statement": "IF SWALLOWED: Call a POISON CENTER/ doctor if you feel. unwell."}, {"code": "P330", "statement": "Rinse mouth."}, {"code": "P391", "statement": "Collect spillage."}, {"code": "P501", "statement": "Dispose of contents/ container to an approved waste disposal. plant."}, {"code": "H302", "statement": "Harmful if swallowed.. Precautionary statement(s)"}, {"code": "P264", "statement": "Wash skin thoroughly after handling."}, {"code": "H302 + H312", "statement": "Harmful if swallowed or in contact with skin.. Precautionary statement(s)"}, {"code": "P264", "statement": "Wash skin thoroughly after handling."}, {"code": "P270", "statement": "Do not eat, drink or smoke when using this product."}, {"code": "P280", "statement": "Wear protective gloves/ protective clothing."}, {"code": "P301 + P312 + P330", "statement": "IF SWALLOWED: Call a POISON CENTER/ doctor if you feel. unwell. Rinse mouth."}, {"code": "P302 + P352 + P312", "statement": "IF ON SKIN: Wash with plenty of water.Call a POISON CENTER/. doctor if you feel unwell."}, {"code": "P363", "statement": "Wash contaminated clothing before reuse."}, {"code": "P501", "statement": "Dispose of contents/ container to an approved waste disposal. plant."}, {"code": "H317", "statement": "May cause an allergic skin reaction."}, {"code": "H334", "statement": "May cause allergy or asthma symptoms or breathing difficulties. if inhaled.. Precautionary statement(s)"}, {"code": "P261", "statement": "Avoid breathing dust."}, {"code": "P272", "statement": "Contaminated work clothing must not be allowed out of the. workplace."}, {"code": "P280", "statement": "Wear protective gloves."}, {"code": "P285", "statement": "In case of inadequate ventilation wear respiratory protection."}, {"code": "P302 + P352", "statement": "IF ON SKIN: Wash with plenty of soap and water."}, {"code": "P304 + P341", "statement": "IF INHALED: If breathing is difficult, remove person to fresh air. and keep comfortable for breathing."}, {"code": "P333 + P313", "statement": "If skin irritation or rash occurs: Get medical advice/ attention."}, {"code": "P342 + P311", "statement": "If experiencing respiratory symptoms: Call a POISON CENTER/. doctor."}, {"code": "P363", "statement": "Wash contaminated clothing before reuse."}, {"code": "P501", "statement": "Dispose of contents/ container to an approved waste disposal. plant."}, {"code": "H413", "statement": "May cause long lasting harmful effects to aquatic life.. Precautionary statement(s)"}, {"code": "P273", "statement": "Avoid release to the environment."}, {"code": "P501", "statement": "Dispose of contents/ container to an approved waste disposal. plant."}], "canonical_smiles": "CC1(C(N2C(S1(=O)=O)CC2=O)C(=O)O)C", "isomeric_smiles": "CC1([C@@H](N2[C@H](S1(=O)=O)CC2=O)C(=O)O)C"}, {"id": 28192, "product_number": "PHR1073", "CAS_number": "70356-09-1", "product_name": "Avobenzone", "product_brand": "Sigma-Aldrich", "supplier": {"company": ":  Sigma-Aldrich Inc.", "location": "3050 SPRUCE ST. ST. LOUIS MO  63103. UNITED STATES", "tel": ":  +1 314 771-5765", "fax": ":  +1 800 325-5052"}, "formula": ":  C20H22O3", "mw": ":  310.39 g/mol", "ec": ":  274-581-6. TabulaTable(extraction_method=stream, page_number=2, top=185.0, bottom=231.0, left=80.0, right=558.0, width=478.0, height=46.0, data=\n+-----------------------------------------------------------++-------------+\n|Component Classification                                   ||Concentration|\n+-----------------------------------------------------------++-------------+\n|1-(4-Methoxyphenyl)-3-(4-tert-butylphenyl)-1,3-propanedione||             |\n+-----------------------------------------------------------++-------------+\n|Aquatic Chronic 4; H413                                    ||<= 100 %     |\n+-----------------------------------------------------------++-------------+\n, additional_ops=['strip_text', 'merge_rows', 'pull_down_to_empty'])", "appearance": "Form: solid", "odor": "No data available", "pH": "No data available", "melting_point": "No data available. point/freezing point", "flash_point": "No data available", "evaporation_rate": "No data available", "flammability": "No data available. gas)", "vapor_pressure": "No data available", "vapor_density": "No data available", "density": "No data available", "water_solubility": "No data available", "partition_coefficient": "No data available. n-octanol/water", "autoignition": "No data available", "decomposition": "No data available. temperature", "viscosity": "No data available", "explosive_properties": "No data available", "oxidizing_properties": "No data available", "bulk_density": "No data available", "particle_size": "No data available", "statements": [{"code": "H318", "statement": "Causes serious eye damage.. Precautionary statement(s)"}, {"code": "P280", "statement": "Wear protective gloves/ eye protection/ face protection."}, {"code": "P305 + P351 + P338", "statement": "IF IN EYES: Rinse cautiously with water for several minutes.. Remove contact lenses, if present and easy to do. Continue. rinsing."}, {"code": "P310", "statement": "Immediately call a POISON CENTER/ doctor."}, {"code": "H302", "statement": "Harmful if swallowed."}, {"code": "H411", "statement": "Toxic to aquatic life with long lasting effects.. Precautionary statement(s)"}, {"code": "P264", "statement": "Wash skin thoroughly after handling."}, {"code": "P270", "statement": "Do not eat, drink or smoke when using this product."}, {"code": "P273", "statement": "Avoid release to the environment."}, {"code": "P301 + P312", "statement": "IF SWALLOWED: Call a POISON CENTER/ doctor if you feel. unwell."}, {"code": "P330", "statement": "Rinse mouth."}, {"code": "P391", "statement": "Collect spillage."}, {"code": "P501", "statement": "Dispose of contents/ container to an approved waste disposal. plant."}, {"code": "H302", "statement": "Harmful if swallowed.. Precautionary statement(s)"}, {"code": "P264", "statement": "Wash skin thoroughly after handling."}, {"code": "H302 + H312", "statement": "Harmful if swallowed or in contact with skin.. Precautionary statement(s)"}, {"code": "P264", "statement": "Wash skin thoroughly after handling."}, {"code": "P270", "statement": "Do not eat, drink or smoke when using this product."}, {"code": "P280", "statement": "Wear protective gloves/ protective clothing."}, {"code": "P301 + P312 + P330", "statement": "IF SWALLOWED: Call a POISON CENTER/ doctor if you feel. unwell. Rinse mouth."}, {"code": "P302 + P352 + P312", "statement": "IF ON SKIN: Wash with plenty of water.Call a POISON CENTER/. doctor if you feel unwell."}, {"code": "P363", "statement": "Wash contaminated clothing before reuse."}, {"code": "P501", "statement": "Dispose of contents/ container to an approved waste disposal. plant."}, {"code": "H317", "statement": "May cause an allergic skin reaction."}, {"code": "H334", "statement": "May cause allergy or asthma symptoms or breathing difficulties. if inhaled.. Precautionary statement(s)"}, {"code": "P261", "statement": "Avoid breathing dust."}, {"code": "P272", "statement": "Contaminated work clothing must not be allowed out of the. workplace."}, {"code": "P280", "statement": "Wear protective gloves."}, {"code": "P285", "statement": "In case of inadequate ventilation wear respiratory protection."}, {"code": "P302 + P352", "statement": "IF ON SKIN: Wash with plenty of soap and water."}, {"code": "P304 + P341", "statement": "IF INHALED: If breathing is difficult, remove person to fresh air. and keep comfortable for breathing."}, {"code": "P333 + P313", "statement": "If skin irritation or rash occurs: Get medical advice/ attention."}, {"code": "P342 + P311", "statement": "If experiencing respiratory symptoms: Call a POISON CENTER/. doctor."}, {"code": "P363", "statement": "Wash contaminated clothing before reuse."}, {"code": "P501", "statement": "Dispose of contents/ container to an approved waste disposal. plant."}, {"code": "H413", "statement": "May cause long lasting harmful effects to aquatic life.. Precautionary statement(s)"}, {"code": "P273", "statement": "Avoid release to the environment."}, {"code": "P501", "statement": "Dispose of contents/ container to an approved waste disposal. plant."}], "canonical_smiles": "CC(C)(C)C1=CC=C(C=C1)C(=O)CC(=O)C2=CC=C(C=C2)OC", "isomeric_smiles": "CC(C)(C)C1=CC=C(C=C1)C(=O)CC(=O)C2=CC=C(C=C2)OC"}]