[{"id": 3876, "product_number": "S840564", "CAS_number": "40655-36-5", "product_name": "4'-ISOPROPYL-2'-NITROACETANILIDE", "product_brand": "Aldrich", "supplier": {"company": ":  Sigma-Aldrich Inc.", "location": "3050 SPRUCE ST. ST. LOUIS MO  63103. UNITED STATES", "tel": ":  +1 314 771-5765", "fax": ":  +1 800 325-5052"}, "formula": ":  C11H14N2O3", "mw": ":  222,25 g/mol", "ec": "No data available", "appearance": "Form: solid", "odor": "No data available", "pH": "No data available", "melting_point": "No data available. point/freezing point", "flash_point": "No data available", "evaporation_rate": "No data available", "flammability": "No data available. gas)", "vapor_pressure": "No data available", "vapor_density": "No data available", "density": "No data available", "water_solubility": "No data available", "partition_coefficient": "log Pow: 1,859. n-octanol/water", "autoignition": "No data available. temperature", "decomposition": "No data available. temperature", "viscosity": "No data available", "explosive_properties": "No data available", "oxidizing_properties": "No data available", "bulk_density": "No data available", "particle_size": "No data available", "statements": [{"code": "H319", "statement": "Causes serious eye irritation.. Precautionary statement(s)"}, {"code": "P264", "statement": "Wash skin thoroughly after handling."}, {"code": "P280", "statement": "Wear protective gloves/ eye protection/ face protection."}, {"code": "P305 + P351 + P338", "statement": "IF IN EYES: Rinse cautiously with water for several minutes.. Remove contact lenses, if present and easy to do. Continue. rinsing."}, {"code": "P337 + P313", "statement": "If eye irritation persists: Get medical advice/ attention."}, {"code": "H410", "statement": "Very toxic to aquatic life with long lasting effects.. Precautionary statement(s)"}, {"code": "P273", "statement": "Avoid release to the environment."}, {"code": "P391", "statement": "Collect spillage."}, {"code": "P501", "statement": "Dispose of contents/ container to an approved waste disposal. plant."}, {"code": "H317", "statement": "May cause an allergic skin reaction."}], "canonical_smiles": "No data available", "isomeric_smiles": "No data available"}, {"id": 2930, "product_number": "546569", "CAS_number": "39590-81-3", "product_name": "1,1-Bis(hydroxymethyl)cyclopropane", "product_brand": "Aldrich", "supplier": {"company": ":  Sigma-Aldrich Inc.", "location": "3050 SPRUCE ST. ST. LOUIS MO  63103. UNITED STATES", "tel": ":  +1 314 771-5765", "fax": ":  +1 800 325-5052"}, "formula": ":  C5H10O2", "mw": ":  102.13 g/mol", "ec": "No data available", "appearance": "Form: viscous. Color: colorless", "odor": "No data available", "pH": "No data available", "melting_point": "No data available. point/freezing point", "flash_point": "110 \u00b0C (230 \u00b0F) - closed cup", "evaporation_rate": "No data available", "flammability": "No data available. gas)", "vapor_pressure": "No data available", "vapor_density": "No data available", "density": "1.065 g/cm3 at 25 \u00b0C (77 \u00b0F) - lit.. Relative density. No data available", "water_solubility": "No data available", "partition_coefficient": "No data available. n-octanol/water", "autoignition": "No data available. temperature", "decomposition": "No data available. temperature", "viscosity": "No data available", "explosive_properties": "No data available", "oxidizing_properties": "No data available", "bulk_density": "No data available", "particle_size": "No data available", "statements": [{"code": "H319", "statement": "Causes serious eye irritation.. Precautionary statement(s)"}, {"code": "P264", "statement": "Wash skin thoroughly after handling."}, {"code": "P280", "statement": "Wear protective gloves/ eye protection/ face protection."}, {"code": "P305 + P351 + P338", "statement": "IF IN EYES: Rinse cautiously with water for several minutes.. Remove contact lenses, if present and easy to do. Continue. rinsing."}, {"code": "P337 + P313", "statement": "If eye irritation persists: Get medical advice/ attention."}, {"code": "H410", "statement": "Very toxic to aquatic life with long lasting effects.. Precautionary statement(s)"}, {"code": "P273", "statement": "Avoid release to the environment."}, {"code": "P391", "statement": "Collect spillage."}, {"code": "P501", "statement": "Dispose of contents/ container to an approved waste disposal. plant."}, {"code": "H317", "statement": "May cause an allergic skin reaction."}], "canonical_smiles": "C1CC1(CO)CO", "isomeric_smiles": "C1CC1(CO)CO"}, {"id": 1596, "product_number": "1483200", "CAS_number": "21737-58-6", "product_name": "Oxcarbazepine Related Compound E", "product_brand": "US Pharmacopeia", "supplier": {"company": ":  Sigma-Aldrich Inc.", "location": "3050 SPRUCE ST. ST. LOUIS MO  63103. UNITED STATES", "tel": ":  +1 314 771-5765", "fax": ":  +1 800 325-5052"}, "formula": ":  C14H11NO", "mw": ":  209,24 g/mol", "ec": "No data available", "appearance": "No data available", "odor": "No data available", "pH": "No data available", "melting_point": "Melting point/range: 138 - 146 \u00b0C. point/freezing point", "flash_point": "No data available", "evaporation_rate": "No data available", "flammability": "No data available. gas)", "vapor_pressure": "No data available", "vapor_density": "No data available", "density": "No data available. Relative density. No data available. density", "water_solubility": "No data available", "partition_coefficient": "No data available. n-octanol/water", "autoignition": "No data available. temperature", "decomposition": "No data available. temperature", "viscosity": "Viscosity, kinematic: No data available. Viscosity, dynamic: No data available", "explosive_properties": "No data available", "oxidizing_properties": "No data available", "bulk_density": "No data available", "particle_size": "No data available", "statements": [{"code": "H319", "statement": "Causes serious eye irritation.. Precautionary statement(s)"}, {"code": "P264", "statement": "Wash skin thoroughly after handling."}, {"code": "P280", "statement": "Wear protective gloves/ eye protection/ face protection."}, {"code": "P305 + P351 + P338", "statement": "IF IN EYES: Rinse cautiously with water for several minutes.. Remove contact lenses, if present and easy to do. Continue. rinsing."}, {"code": "P337 + P313", "statement": "If eye irritation persists: Get medical advice/ attention."}, {"code": "H410", "statement": "Very toxic to aquatic life with long lasting effects.. Precautionary statement(s)"}, {"code": "P273", "statement": "Avoid release to the environment."}, {"code": "P391", "statement": "Collect spillage."}, {"code": "P501", "statement": "Dispose of contents/ container to an approved waste disposal. plant."}, {"code": "H317", "statement": "May cause an allergic skin reaction."}], "canonical_smiles": "No data available", "isomeric_smiles": "No data available"}, {"id": 3863, "product_number": "587583", "CAS_number": "7779-90-0", "product_name": "Zinc phosphate", "product_brand": "Aldrich", "supplier": {"company": ":  Sigma-Aldrich Inc.", "location": "3050 SPRUCE ST. ST. LOUIS MO  63103. UNITED STATES", "tel": ":  +1 314 771-5765", "fax": ":  +1 800 325-5052"}, "formula": ":  O8P2Zn3", "mw": ":  386.11 g/mol", "ec": ":  231-944-3", "appearance": "Form: Powder with lumps. Color: white", "odor": "No data available", "pH": "No data available", "melting_point": "Melting point/range: 846 - 855 \u00b0C (1555 - 1571 \u00b0F) at ca.1,013. point/freezing point. hPa - Decomposes on heating.", "flash_point": "()Not applicable", "evaporation_rate": "No data available", "flammability": "No data available. gas)", "vapor_pressure": "No data available", "vapor_density": "No data available", "density": "3.26 g/cm3 at 22 \u00b0C (72 \u00b0F). Relative density. No data available", "water_solubility": "2.7 g/l at 20 \u00b0C (68 \u00b0F) - OECD Test Guideline 105 - slightly. soluble", "partition_coefficient": "No data available. n-octanol/water", "autoignition": "No data available. temperature", "decomposition": "ca.50 \u00b0C (ca.122 \u00b0F) -. temperature", "viscosity": "No data available", "explosive_properties": "No data available", "oxidizing_properties": "No data available", "bulk_density": "No data available", "particle_size": "No data available", "statements": [{"code": "H319", "statement": "Causes serious eye irritation.. Precautionary statement(s)"}, {"code": "P264", "statement": "Wash skin thoroughly after handling."}, {"code": "P280", "statement": "Wear protective gloves/ eye protection/ face protection."}, {"code": "P305 + P351 + P338", "statement": "IF IN EYES: Rinse cautiously with water for several minutes.. Remove contact lenses, if present and easy to do. Continue. rinsing."}, {"code": "P337 + P313", "statement": "If eye irritation persists: Get medical advice/ attention."}, {"code": "H410", "statement": "Very toxic to aquatic life with long lasting effects.. Precautionary statement(s)"}, {"code": "P273", "statement": "Avoid release to the environment."}, {"code": "P391", "statement": "Collect spillage."}, {"code": "P501", "statement": "Dispose of contents/ container to an approved waste disposal. plant."}, {"code": "H317", "statement": "May cause an allergic skin reaction."}], "canonical_smiles": "[O-]P(=O)([O-])[O-].[O-]P(=O)([O-])[O-].[Zn+2].[Zn+2].[Zn+2]", "isomeric_smiles": "[O-]P(=O)([O-])[O-].[O-]P(=O)([O-])[O-].[Zn+2].[Zn+2].[Zn+2]"}, {"id": 39500, "product_number": "GF14471300", "CAS_number": "7440-02-0", "product_name": "Nickel", "product_brand": "Aldrich", "supplier": {"company": ":  Sigma-Aldrich Inc.", "location": "3050 SPRUCE ST. ST. LOUIS MO  63103. UNITED STATES", "tel": ":  +1 314 771-5765", "fax": ":  +1 800 325-5052"}, "formula": "No data available", "mw": ":  58.69 g/mol", "ec": "No data available", "appearance": "Form: solid", "odor": "No data available", "pH": "No data available", "melting_point": "No data available", "flash_point": "No data available", "evaporation_rate": "No data available", "flammability": "No data available", "vapor_pressure": "No data available", "vapor_density": "No data available", "density": "No data available", "water_solubility": "No data available", "partition_coefficient": "No data available", "autoignition": "No data available", "decomposition": "No data available", "viscosity": "No data available", "explosive_properties": "No data available", "oxidizing_properties": "No data available", "bulk_density": "No data available", "particle_size": "No data available", "statements": [{"code": "H319", "statement": "Causes serious eye irritation.. Precautionary statement(s)"}, {"code": "P264", "statement": "Wash skin thoroughly after handling."}, {"code": "P280", "statement": "Wear protective gloves/ eye protection/ face protection."}, {"code": "P305 + P351 + P338", "statement": "IF IN EYES: Rinse cautiously with water for several minutes.. Remove contact lenses, if present and easy to do. Continue. rinsing."}, {"code": "P337 + P313", "statement": "If eye irritation persists: Get medical advice/ attention."}, {"code": "H410", "statement": "Very toxic to aquatic life with long lasting effects.. Precautionary statement(s)"}, {"code": "P273", "statement": "Avoid release to the environment."}, {"code": "P391", "statement": "Collect spillage."}, {"code": "P501", "statement": "Dispose of contents/ container to an approved waste disposal. plant."}, {"code": "H317", "statement": "May cause an allergic skin reaction."}], "canonical_smiles": "[Ni]", "isomeric_smiles": "[Ni]"}, {"id": 1508, "product_number": "W241008", "CAS_number": "89-65-6", "product_name": "D-Isoascorbic acid", "product_brand": "Aldrich", "supplier": {"company": ":  Sigma-Aldrich Inc.", "location": "3050 SPRUCE ST. ST. LOUIS MO  63103. UNITED STATES", "tel": ":  +1 314 771-5765", "fax": ":  +1 800 325-5052"}, "formula": ":  C6H8O6", "mw": ":  176.12 g/mol", "ec": ":  201-928-0. No components need to be disclosed according to the applicable regulations.", "appearance": "Form: crystalline. Color: white", "odor": "No data available", "pH": "No data available", "melting_point": "Melting point/range: 169 - 172 \u00b0C (336 - 342 \u00b0F) - dec.. point/freezing point", "flash_point": "No data available", "evaporation_rate": "No data available", "flammability": "No data available. gas)", "vapor_pressure": "No data available", "vapor_density": "No data available", "density": "No data available", "water_solubility": "400 g/l at 25 \u00b0C (77 \u00b0F)", "partition_coefficient": "log Pow: -1.69 at 25 \u00b0C (77 \u00b0F) - Bioaccumulation is not. n-octanol/water. expected.", "autoignition": "No data available. temperature", "decomposition": "No data available. temperature", "viscosity": "No data available", "explosive_properties": "No data available", "oxidizing_properties": "No data available", "bulk_density": "No data available", "particle_size": "No data available", "statements": [{"code": "H319", "statement": "Causes serious eye irritation.. Precautionary statement(s)"}, {"code": "P264", "statement": "Wash skin thoroughly after handling."}, {"code": "P280", "statement": "Wear protective gloves/ eye protection/ face protection."}, {"code": "P305 + P351 + P338", "statement": "IF IN EYES: Rinse cautiously with water for several minutes.. Remove contact lenses, if present and easy to do. Continue. rinsing."}, {"code": "P337 + P313", "statement": "If eye irritation persists: Get medical advice/ attention."}, {"code": "H410", "statement": "Very toxic to aquatic life with long lasting effects.. Precautionary statement(s)"}, {"code": "P273", "statement": "Avoid release to the environment."}, {"code": "P391", "statement": "Collect spillage."}, {"code": "P501", "statement": "Dispose of contents/ container to an approved waste disposal. plant."}, {"code": "H317", "statement": "May cause an allergic skin reaction."}], "canonical_smiles": "C(C(C1C(=C(C(=O)O1)O)O)O)O", "isomeric_smiles": "C([C@H]([C@@H]1C(=C(C(=O)O1)O)O)O)O"}]