[{"id": 483, "product_number": "BML00011", "CAS_number": "380151-86-0", "product_name": "3-(4,4,5,5-Tetramethyl-1,3,2-Dioxaborolan-", "product_brand": "Aldrich", "supplier": {"company": ":  Sigma-Aldrich Inc.", "location": "3050 SPRUCE ST. ST. LOUIS MO  63103. UNITED STATES", "tel": ":  +1 314 771-5765", "fax": ":  +1 800 325-5052"}, "formula": ":  C13H17BO3", "mw": ":  232.08 g/mol", "ec": "No data available", "appearance": "No data available", "odor": "No data available", "pH": "No data available", "melting_point": "No data available", "flash_point": "No data available", "evaporation_rate": "No data available", "flammability": "No data available", "vapor_pressure": "No data available", "vapor_density": "No data available", "density": "No data available", "water_solubility": "No data available", "partition_coefficient": "No data available", "autoignition": "No data available", "decomposition": "No data available", "viscosity": "No data available", "explosive_properties": "No data available", "oxidizing_properties": "No data available", "bulk_density": "No data available", "particle_size": "No data available", "statements": [{"code": "H318", "statement": "Causes serious eye damage."}, {"code": "H400", "statement": "Very toxic to aquatic life."}, {"code": "H411", "statement": "Toxic to aquatic life with long lasting effects.. Precautionary statement(s)"}, {"code": "P273", "statement": "Avoid release to the environment."}, {"code": "P280", "statement": "Wear eye protection/ face protection."}, {"code": "P305 + P351 + P338 +", "statement": "IF IN EYES: Rinse cautiously with water for several minutes."}, {"code": "P310", "statement": "Remove contact lenses, if present and easy to do. Continue. rinsing. Immediately call a POISON CENTER/ doctor."}, {"code": "P391", "statement": "Collect spillage."}, {"code": "P501", "statement": "Dispose of contents/ container to an approved waste disposal. plant."}, {"code": "H302", "statement": "Harmful if swallowed."}, {"code": "H351", "statement": "Suspected of causing cancer.. Precautionary statement(s)"}, {"code": "P201", "statement": "Obtain special instructions before use."}, {"code": "P202", "statement": "Do not handle until all safety precautions have been read and. understood."}, {"code": "P264", "statement": "Wash skin thoroughly after handling."}, {"code": "P270", "statement": "Do not eat, drink or smoke when using this product."}, {"code": "P280", "statement": "Wear protective gloves/ protective clothing/ eye protection/ face. protection."}, {"code": "P301 + P312 + P330", "statement": "IF SWALLOWED: Call a POISON CENTER/ doctor if you feel. unwell. Rinse mouth."}, {"code": "P308 + P313", "statement": "IF exposed or concerned: Get medical advice/ attention."}, {"code": "P405", "statement": "Store locked up."}, {"code": "P501", "statement": "Dispose of contents/ container to an approved waste disposal. plant."}, {"code": "H413", "statement": "May cause long lasting harmful effects to aquatic life.. Precautionary statement(s)"}, {"code": "P273", "statement": "Avoid release to the environment."}, {"code": "P501", "statement": "Dispose of contents/ container to an approved waste disposal"}, {"code": "H317", "statement": "May cause an allergic skin reaction.. Precautionary statement(s)"}, {"code": "P261", "statement": "Avoid breathing dust/ fume/ gas/ mist/ vapors/ spray."}, {"code": "P272", "statement": "Contaminated work clothing should not be allowed out of the. workplace."}, {"code": "P280", "statement": "Wear protective gloves."}, {"code": "P302 + P352", "statement": "IF ON SKIN: Wash with plenty of soap and water."}, {"code": "P333 + P313", "statement": "If skin irritation or rash occurs: Get medical advice/ attention."}, {"code": "P363", "statement": "Wash contaminated clothing before reuse."}, {"code": "P501", "statement": "Dispose of contents/ container to an approved waste disposal. plant."}], "canonical_smiles": "No data available", "isomeric_smiles": "No data available"}, {"id": 17762, "product_number": "535834", "CAS_number": "52829-07-9", "product_name": "Bis(2,2,6,6-tetramethyl-4-piperidyl) sebacate", "product_brand": "Aldrich", "supplier": {"company": ":  Sigma-Aldrich Inc.", "location": "3050 SPRUCE ST. ST. LOUIS MO  63103. UNITED STATES", "tel": ":  +1 314 771-5765", "fax": ":  +1 800 325-5052"}, "formula": ":  C28H52N2O4", "mw": ":  480.72 g/mol", "ec": ":  258-207-9. TabulaTable(extraction_method=stream, page_number=2, top=324.0, bottom=418.0, left=80.0, right=558.0, width=478.0, height=94.0, data=\n+--------------------------------------------------------------------------------------------++-------------+\n|Component Classification                                                                    ||Concentration|\n+--------------------------------------------------------------------------------------------++-------------+\n|bis (2,2,6,6-tetramethyl-4-piperidyl) sebacate                                              ||             |\n+--------------------------------------------------------------------------------------------++-------------+\n|Eye Dam. 1; Aquatic Acute 1; Aquatic Chronic 2; H318, H400, H411 M-Factor - Aquatic Acute: 1||<= 100 %     |\n+--------------------------------------------------------------------------------------------++-------------+\n, additional_ops=['strip_text', 'merge_rows', 'pull_down_to_empty'])", "appearance": "Form: solid. Color: light yellow", "odor": "No data available", "pH": "9.7 at 10 g/l at 23 \u00b0C (73 \u00b0F) - suspension", "melting_point": "Melting point/range: 82 - 85 \u00b0C (180 - 185 \u00b0F) - lit.. point/freezing point", "flash_point": "> 150 \u00b0C (> 302 \u00b0F) - open cup", "evaporation_rate": "No data available", "flammability": "No data available. gas)", "vapor_pressure": "No data available", "vapor_density": "No data available", "density": "No data available", "water_solubility": "0.0181 g/l at 23 \u00b0C (73 \u00b0F) - OECD Test Guideline 105", "partition_coefficient": "log Pow: 0.35 at 23 \u00b0C (73 \u00b0F) - Bioaccumulation is not. n-octanol/water. expected.", "autoignition": "No data available. temperature", "decomposition": "No data available. temperature", "viscosity": "No data available", "explosive_properties": "No data available", "oxidizing_properties": "No data available", "bulk_density": "No data available", "particle_size": "No data available", "statements": [{"code": "H318", "statement": "Causes serious eye damage."}, {"code": "H400", "statement": "Very toxic to aquatic life."}, {"code": "H411", "statement": "Toxic to aquatic life with long lasting effects.. Precautionary statement(s)"}, {"code": "P273", "statement": "Avoid release to the environment."}, {"code": "P280", "statement": "Wear eye protection/ face protection."}, {"code": "P305 + P351 + P338 +", "statement": "IF IN EYES: Rinse cautiously with water for several minutes."}, {"code": "P310", "statement": "Remove contact lenses, if present and easy to do. Continue. rinsing. Immediately call a POISON CENTER/ doctor."}, {"code": "P391", "statement": "Collect spillage."}, {"code": "P501", "statement": "Dispose of contents/ container to an approved waste disposal. plant."}, {"code": "H302", "statement": "Harmful if swallowed."}, {"code": "H351", "statement": "Suspected of causing cancer.. Precautionary statement(s)"}, {"code": "P201", "statement": "Obtain special instructions before use."}, {"code": "P202", "statement": "Do not handle until all safety precautions have been read and. understood."}, {"code": "P264", "statement": "Wash skin thoroughly after handling."}, {"code": "P270", "statement": "Do not eat, drink or smoke when using this product."}, {"code": "P280", "statement": "Wear protective gloves/ protective clothing/ eye protection/ face. protection."}, {"code": "P301 + P312 + P330", "statement": "IF SWALLOWED: Call a POISON CENTER/ doctor if you feel. unwell. Rinse mouth."}, {"code": "P308 + P313", "statement": "IF exposed or concerned: Get medical advice/ attention."}, {"code": "P405", "statement": "Store locked up."}, {"code": "P501", "statement": "Dispose of contents/ container to an approved waste disposal. plant."}, {"code": "H413", "statement": "May cause long lasting harmful effects to aquatic life.. Precautionary statement(s)"}, {"code": "P273", "statement": "Avoid release to the environment."}, {"code": "P501", "statement": "Dispose of contents/ container to an approved waste disposal"}, {"code": "H317", "statement": "May cause an allergic skin reaction.. Precautionary statement(s)"}, {"code": "P261", "statement": "Avoid breathing dust/ fume/ gas/ mist/ vapors/ spray."}, {"code": "P272", "statement": "Contaminated work clothing should not be allowed out of the. workplace."}, {"code": "P280", "statement": "Wear protective gloves."}, {"code": "P302 + P352", "statement": "IF ON SKIN: Wash with plenty of soap and water."}, {"code": "P333 + P313", "statement": "If skin irritation or rash occurs: Get medical advice/ attention."}, {"code": "P363", "statement": "Wash contaminated clothing before reuse."}, {"code": "P501", "statement": "Dispose of contents/ container to an approved waste disposal. plant."}], "canonical_smiles": "CC1(CC(CC(N1)(C)C)OC(=O)CCCCCCCCC(=O)OC2CC(NC(C2)(C)C)(C)C)C", "isomeric_smiles": "CC1(CC(CC(N1)(C)C)OC(=O)CCCCCCCCC(=O)OC2CC(NC(C2)(C)C)(C)C)C"}, {"id": 46645, "product_number": "PHR2609", "CAS_number": "51-52-5", "product_name": "Propylthiouracil", "product_brand": "Sigma-Aldrich", "supplier": {"company": ":  Sigma-Aldrich Inc.", "location": "3050 SPRUCE ST. ST. LOUIS MO  63103. UNITED STATES", "tel": ":  +1 314 771-5765", "fax": ":  +1 800 325-5052"}, "formula": ":  C2H4O2.Na", "mw": ":  170.23 g/mol", "ec": ":  200-103-2. TabulaTable(extraction_method=stream, page_number=2, top=376.0, bottom=434.0, left=80.0, right=558.0, width=478.0, height=58.0, data=\n+---------------------+---------------------------------+-------------+\n|Component            |Classification                   |Concentration|\n+---------------------+---------------------------------+-------------+\n|6-Propyl-2-thiouracil|                                 |             |\n+---------------------+---------------------------------+-------------+\n|6-Propyl-2-thiouracil|Acute Tox. 4; Carc. 2; H302, H351|<= 100 %     |\n+---------------------+---------------------------------+-------------+\n, additional_ops=['strip_text', 'merge_rows', 'pull_down_to_empty'])", "appearance": "Form: powder. Color: white", "odor": "No data available", "pH": "6.0 - 7.0 at 5 g/l at 20 \u00b0C (68 \u00b0F)", "melting_point": "Melting point/range: 219 - 221 \u00b0C (426 - 430 \u00b0F). point/freezing point", "flash_point": "300.00 \u00b0C (572.00 \u00b0F)", "evaporation_rate": "No data available", "flammability": "The product is not flammable.. gas)", "vapor_pressure": "No data available", "vapor_density": "No data available", "density": "No data available. Relative density. No data available", "water_solubility": "No data available", "partition_coefficient": "No data available. n-octanol/water", "autoignition": "No data available. temperature", "decomposition": "No data available. temperature", "viscosity": "No data available", "explosive_properties": "No data available", "oxidizing_properties": "No data available", "bulk_density": "No data available", "particle_size": "No data available", "statements": [{"code": "H318", "statement": "Causes serious eye damage."}, {"code": "H400", "statement": "Very toxic to aquatic life."}, {"code": "H411", "statement": "Toxic to aquatic life with long lasting effects.. Precautionary statement(s)"}, {"code": "P273", "statement": "Avoid release to the environment."}, {"code": "P280", "statement": "Wear eye protection/ face protection."}, {"code": "P305 + P351 + P338 +", "statement": "IF IN EYES: Rinse cautiously with water for several minutes."}, {"code": "P310", "statement": "Remove contact lenses, if present and easy to do. Continue. rinsing. Immediately call a POISON CENTER/ doctor."}, {"code": "P391", "statement": "Collect spillage."}, {"code": "P501", "statement": "Dispose of contents/ container to an approved waste disposal. plant."}, {"code": "H302", "statement": "Harmful if swallowed."}, {"code": "H351", "statement": "Suspected of causing cancer.. Precautionary statement(s)"}, {"code": "P201", "statement": "Obtain special instructions before use."}, {"code": "P202", "statement": "Do not handle until all safety precautions have been read and. understood."}, {"code": "P264", "statement": "Wash skin thoroughly after handling."}, {"code": "P270", "statement": "Do not eat, drink or smoke when using this product."}, {"code": "P280", "statement": "Wear protective gloves/ protective clothing/ eye protection/ face. protection."}, {"code": "P301 + P312 + P330", "statement": "IF SWALLOWED: Call a POISON CENTER/ doctor if you feel. unwell. Rinse mouth."}, {"code": "P308 + P313", "statement": "IF exposed or concerned: Get medical advice/ attention."}, {"code": "P405", "statement": "Store locked up."}, {"code": "P501", "statement": "Dispose of contents/ container to an approved waste disposal. plant."}, {"code": "H413", "statement": "May cause long lasting harmful effects to aquatic life.. Precautionary statement(s)"}, {"code": "P273", "statement": "Avoid release to the environment."}, {"code": "P501", "statement": "Dispose of contents/ container to an approved waste disposal"}, {"code": "H317", "statement": "May cause an allergic skin reaction.. Precautionary statement(s)"}, {"code": "P261", "statement": "Avoid breathing dust/ fume/ gas/ mist/ vapors/ spray."}, {"code": "P272", "statement": "Contaminated work clothing should not be allowed out of the. workplace."}, {"code": "P280", "statement": "Wear protective gloves."}, {"code": "P302 + P352", "statement": "IF ON SKIN: Wash with plenty of soap and water."}, {"code": "P333 + P313", "statement": "If skin irritation or rash occurs: Get medical advice/ attention."}, {"code": "P363", "statement": "Wash contaminated clothing before reuse."}, {"code": "P501", "statement": "Dispose of contents/ container to an approved waste disposal. plant."}], "canonical_smiles": "CCCC1=CC(=O)NC(=S)N1", "isomeric_smiles": "CCCC1=CC(=O)NC(=S)N1"}, {"id": 28124, "product_number": "701807", "CAS_number": "329735-87-7", "product_name": "Dichloro[(S)-(\u2212)-2,2\u2032-", "product_brand": "Aldrich", "supplier": {"company": ":  Sigma-Aldrich Inc.", "location": "3050 SPRUCE ST. ST. LOUIS MO  63103. UNITED STATES", "tel": ":  +1 314 771-5765", "fax": ":  +1 800 325-5052"}, "formula": ":  C58H48Cl2N2P2Ru", "mw": ":  1,006.94 g/mol", "ec": "No data available", "appearance": "Form: solid", "odor": "No data available", "pH": "No data available", "melting_point": "Melting point/range: > 300 \u00b0C (> 572 \u00b0F). point/freezing point", "flash_point": "()No data available", "evaporation_rate": "No data available", "flammability": "No data available. gas)", "vapor_pressure": "No data available", "vapor_density": "No data available", "density": "No data available. Relative density. No data available", "water_solubility": "No data available", "partition_coefficient": "No data available. n-octanol/water", "autoignition": "No data available. temperature", "decomposition": "No data available. temperature", "viscosity": "No data available", "explosive_properties": "No data available", "oxidizing_properties": "No data available", "bulk_density": "No data available", "particle_size": "No data available", "statements": [{"code": "H318", "statement": "Causes serious eye damage."}, {"code": "H400", "statement": "Very toxic to aquatic life."}, {"code": "H411", "statement": "Toxic to aquatic life with long lasting effects.. Precautionary statement(s)"}, {"code": "P273", "statement": "Avoid release to the environment."}, {"code": "P280", "statement": "Wear eye protection/ face protection."}, {"code": "P305 + P351 + P338 +", "statement": "IF IN EYES: Rinse cautiously with water for several minutes."}, {"code": "P310", "statement": "Remove contact lenses, if present and easy to do. Continue. rinsing. Immediately call a POISON CENTER/ doctor."}, {"code": "P391", "statement": "Collect spillage."}, {"code": "P501", "statement": "Dispose of contents/ container to an approved waste disposal. plant."}, {"code": "H302", "statement": "Harmful if swallowed."}, {"code": "H351", "statement": "Suspected of causing cancer.. Precautionary statement(s)"}, {"code": "P201", "statement": "Obtain special instructions before use."}, {"code": "P202", "statement": "Do not handle until all safety precautions have been read and. understood."}, {"code": "P264", "statement": "Wash skin thoroughly after handling."}, {"code": "P270", "statement": "Do not eat, drink or smoke when using this product."}, {"code": "P280", "statement": "Wear protective gloves/ protective clothing/ eye protection/ face. protection."}, {"code": "P301 + P312 + P330", "statement": "IF SWALLOWED: Call a POISON CENTER/ doctor if you feel. unwell. Rinse mouth."}, {"code": "P308 + P313", "statement": "IF exposed or concerned: Get medical advice/ attention."}, {"code": "P405", "statement": "Store locked up."}, {"code": "P501", "statement": "Dispose of contents/ container to an approved waste disposal. plant."}, {"code": "H413", "statement": "May cause long lasting harmful effects to aquatic life.. Precautionary statement(s)"}, {"code": "P273", "statement": "Avoid release to the environment."}, {"code": "P501", "statement": "Dispose of contents/ container to an approved waste disposal"}, {"code": "H317", "statement": "May cause an allergic skin reaction.. Precautionary statement(s)"}, {"code": "P261", "statement": "Avoid breathing dust/ fume/ gas/ mist/ vapors/ spray."}, {"code": "P272", "statement": "Contaminated work clothing should not be allowed out of the. workplace."}, {"code": "P280", "statement": "Wear protective gloves."}, {"code": "P302 + P352", "statement": "IF ON SKIN: Wash with plenty of soap and water."}, {"code": "P333 + P313", "statement": "If skin irritation or rash occurs: Get medical advice/ attention."}, {"code": "P363", "statement": "Wash contaminated clothing before reuse."}, {"code": "P501", "statement": "Dispose of contents/ container to an approved waste disposal. plant."}], "canonical_smiles": "No data available", "isomeric_smiles": "No data available"}, {"id": 28188, "product_number": "1045337", "CAS_number": "70356-09-1", "product_name": "Avobenzone (500 mg)", "product_brand": "US Pharmacopeia", "supplier": {"company": ":  Sigma-Aldrich Inc.", "location": "3050 SPRUCE ST. ST. LOUIS MO  63103. UNITED STATES", "tel": ":  +1 314 771-5765", "fax": ":  +1 800 325-5052"}, "formula": "No data available", "mw": ":  310.39 g/mol", "ec": "No data available", "appearance": "Form: solid", "odor": "No data available", "pH": "No data available", "melting_point": "No data available. point/freezing point", "flash_point": "No data available", "evaporation_rate": "No data available", "flammability": "No data available. gas)", "vapor_pressure": "No data available", "vapor_density": "No data available", "density": "No data available", "water_solubility": "No data available", "partition_coefficient": "No data available", "autoignition": "No data available", "decomposition": "No data available", "viscosity": "No data available", "explosive_properties": "No data available", "oxidizing_properties": "No data available", "bulk_density": "No data available", "particle_size": "No data available", "statements": [{"code": "H318", "statement": "Causes serious eye damage."}, {"code": "H400", "statement": "Very toxic to aquatic life."}, {"code": "H411", "statement": "Toxic to aquatic life with long lasting effects.. Precautionary statement(s)"}, {"code": "P273", "statement": "Avoid release to the environment."}, {"code": "P280", "statement": "Wear eye protection/ face protection."}, {"code": "P305 + P351 + P338 +", "statement": "IF IN EYES: Rinse cautiously with water for several minutes."}, {"code": "P310", "statement": "Remove contact lenses, if present and easy to do. Continue. rinsing. Immediately call a POISON CENTER/ doctor."}, {"code": "P391", "statement": "Collect spillage."}, {"code": "P501", "statement": "Dispose of contents/ container to an approved waste disposal. plant."}, {"code": "H302", "statement": "Harmful if swallowed."}, {"code": "H351", "statement": "Suspected of causing cancer.. Precautionary statement(s)"}, {"code": "P201", "statement": "Obtain special instructions before use."}, {"code": "P202", "statement": "Do not handle until all safety precautions have been read and. understood."}, {"code": "P264", "statement": "Wash skin thoroughly after handling."}, {"code": "P270", "statement": "Do not eat, drink or smoke when using this product."}, {"code": "P280", "statement": "Wear protective gloves/ protective clothing/ eye protection/ face. protection."}, {"code": "P301 + P312 + P330", "statement": "IF SWALLOWED: Call a POISON CENTER/ doctor if you feel. unwell. Rinse mouth."}, {"code": "P308 + P313", "statement": "IF exposed or concerned: Get medical advice/ attention."}, {"code": "P405", "statement": "Store locked up."}, {"code": "P501", "statement": "Dispose of contents/ container to an approved waste disposal. plant."}, {"code": "H413", "statement": "May cause long lasting harmful effects to aquatic life.. Precautionary statement(s)"}, {"code": "P273", "statement": "Avoid release to the environment."}, {"code": "P501", "statement": "Dispose of contents/ container to an approved waste disposal"}, {"code": "H317", "statement": "May cause an allergic skin reaction.. Precautionary statement(s)"}, {"code": "P261", "statement": "Avoid breathing dust/ fume/ gas/ mist/ vapors/ spray."}, {"code": "P272", "statement": "Contaminated work clothing should not be allowed out of the. workplace."}, {"code": "P280", "statement": "Wear protective gloves."}, {"code": "P302 + P352", "statement": "IF ON SKIN: Wash with plenty of soap and water."}, {"code": "P333 + P313", "statement": "If skin irritation or rash occurs: Get medical advice/ attention."}, {"code": "P363", "statement": "Wash contaminated clothing before reuse."}, {"code": "P501", "statement": "Dispose of contents/ container to an approved waste disposal. plant."}], "canonical_smiles": "No data available", "isomeric_smiles": "No data available"}, {"id": 3019, "product_number": "PHR1500", "CAS_number": "39236-46-9", "product_name": "Imidurea", "product_brand": "Sigma-Aldrich", "supplier": {"company": ":  Sigma-Aldrich Inc.", "location": "3050 SPRUCE ST. ST. LOUIS MO  63103. UNITED STATES", "tel": ":  +1 314 771-5765", "fax": ":  +1 800 325-5052"}, "formula": "No data available", "mw": ":  388.29 g/mol", "ec": ":  254-372-6. TabulaTable(extraction_method=stream, page_number=2, top=267.0, bottom=313.0, left=80.0, right=558.0, width=478.0, height=46.0, data=\n+-------------------------------------------------------------------------+-------------+\n|Component Classification                                                 |Concentration|\n+-------------------------------------------------------------------------+-------------+\n|N,N''-Methylenebis[N'-[3-(hydroxymethyl)-2,5-dioxoimidazolidin-4-yl]urea]|             |\n+-------------------------------------------------------------------------+-------------+\n|Skin Sens. 1B; H317                                                      |<= 100 %     |\n+-------------------------------------------------------------------------+-------------+\n, additional_ops=['strip_text', 'merge_rows', 'pull_down_to_empty'])", "appearance": "Form: powder. Color: white", "odor": "No data available", "pH": "No data available", "melting_point": "Melting point/range: 240.5 \u00b0C (464.9 \u00b0F). point/freezing point", "flash_point": "()No data available", "evaporation_rate": "No data available", "flammability": "No data available. gas)", "vapor_pressure": "No data available", "vapor_density": "No data available", "density": "1.24 g/cm3 at 20 \u00b0C (68 \u00b0F). Relative density. No data available", "water_solubility": "1,000 g/l at 20 \u00b0C (68 \u00b0F) - completely soluble", "partition_coefficient": "log Pow: < 0.9 at 20 \u00b0C (68 \u00b0F). n-octanol/water", "autoignition": "410 \u00b0C (770 \u00b0F). temperature", "decomposition": "No data available. temperature", "viscosity": "No data available", "explosive_properties": "No data available", "oxidizing_properties": "No data available", "bulk_density": "No data available", "particle_size": "No data available", "statements": [{"code": "H318", "statement": "Causes serious eye damage."}, {"code": "H400", "statement": "Very toxic to aquatic life."}, {"code": "H411", "statement": "Toxic to aquatic life with long lasting effects.. Precautionary statement(s)"}, {"code": "P273", "statement": "Avoid release to the environment."}, {"code": "P280", "statement": "Wear eye protection/ face protection."}, {"code": "P305 + P351 + P338 +", "statement": "IF IN EYES: Rinse cautiously with water for several minutes."}, {"code": "P310", "statement": "Remove contact lenses, if present and easy to do. Continue. rinsing. Immediately call a POISON CENTER/ doctor."}, {"code": "P391", "statement": "Collect spillage."}, {"code": "P501", "statement": "Dispose of contents/ container to an approved waste disposal. plant."}, {"code": "H302", "statement": "Harmful if swallowed."}, {"code": "H351", "statement": "Suspected of causing cancer.. Precautionary statement(s)"}, {"code": "P201", "statement": "Obtain special instructions before use."}, {"code": "P202", "statement": "Do not handle until all safety precautions have been read and. understood."}, {"code": "P264", "statement": "Wash skin thoroughly after handling."}, {"code": "P270", "statement": "Do not eat, drink or smoke when using this product."}, {"code": "P280", "statement": "Wear protective gloves/ protective clothing/ eye protection/ face. protection."}, {"code": "P301 + P312 + P330", "statement": "IF SWALLOWED: Call a POISON CENTER/ doctor if you feel. unwell. Rinse mouth."}, {"code": "P308 + P313", "statement": "IF exposed or concerned: Get medical advice/ attention."}, {"code": "P405", "statement": "Store locked up."}, {"code": "P501", "statement": "Dispose of contents/ container to an approved waste disposal. plant."}, {"code": "H413", "statement": "May cause long lasting harmful effects to aquatic life.. Precautionary statement(s)"}, {"code": "P273", "statement": "Avoid release to the environment."}, {"code": "P501", "statement": "Dispose of contents/ container to an approved waste disposal"}, {"code": "H317", "statement": "May cause an allergic skin reaction.. Precautionary statement(s)"}, {"code": "P261", "statement": "Avoid breathing dust/ fume/ gas/ mist/ vapors/ spray."}, {"code": "P272", "statement": "Contaminated work clothing should not be allowed out of the. workplace."}, {"code": "P280", "statement": "Wear protective gloves."}, {"code": "P302 + P352", "statement": "IF ON SKIN: Wash with plenty of soap and water."}, {"code": "P333 + P313", "statement": "If skin irritation or rash occurs: Get medical advice/ attention."}, {"code": "P363", "statement": "Wash contaminated clothing before reuse."}, {"code": "P501", "statement": "Dispose of contents/ container to an approved waste disposal. plant."}], "canonical_smiles": "C(NC(=O)NC1C(=O)NC(=O)N1CO)NC(=O)NC2C(=O)NC(=O)N2CO", "isomeric_smiles": "C(NC(=O)NC1C(=O)NC(=O)N1CO)NC(=O)NC2C(=O)NC(=O)N2CO"}]