[{"id": 28194, "product_number": "S486450", "CAS_number": "32428-71-0", "product_name": "2-CHLORO-N-(2-ETHYL-6-METHYL-PHENYL)-", "product_brand": "Aldrich", "supplier": {"company": ":  Sigma-Aldrich Inc.", "location": "3050 SPRUCE ST. ST. LOUIS MO  63103. UNITED STATES", "tel": ":  +1 314 771-5765", "fax": ":  +1 800 325-5052"}, "formula": ":  C11H14ClNO", "mw": ":  211.69 g/mol", "ec": "No data available", "appearance": "No data available", "odor": "No data available", "pH": "No data available", "melting_point": "No data available", "flash_point": "No data available", "evaporation_rate": "No data available", "flammability": "No data available", "vapor_pressure": "No data available", "vapor_density": "No data available", "density": "No data available", "water_solubility": "No data available", "partition_coefficient": "No data available", "autoignition": "No data available", "decomposition": "No data available", "viscosity": "No data available", "explosive_properties": "No data available", "oxidizing_properties": "No data available", "bulk_density": "No data available", "particle_size": "No data available", "statements": [{"code": "H319", "statement": "Causes serious eye irritation.. Precautionary statement(s)"}, {"code": "P264", "statement": "Wash skin thoroughly after handling."}, {"code": "P280", "statement": "Wear protective gloves/ eye protection/ face protection."}, {"code": "P305 + P351 + P338", "statement": "IF IN EYES: Rinse cautiously with water for several minutes.. Remove contact lenses, if present and easy to do. Continue. rinsing."}, {"code": "P337 + P313", "statement": "If eye irritation persists: Get medical advice/ attention."}, {"code": "H361", "statement": "Suspected of damaging fertility or the unborn child."}], "canonical_smiles": "No data available", "isomeric_smiles": "No data available"}, {"id": 971, "product_number": "1356982", "CAS_number": "112809-52-6", "product_name": "Letrozole Related Compound A, United States", "product_brand": "US Pharmacopeia", "supplier": {"company": ":  Sigma-Aldrich Inc.", "location": "3050 SPRUCE ST. ST. LOUIS MO  63103. UNITED STATES", "tel": ":  +1 314 771-5765", "fax": ":  +1 800 325-5052"}, "formula": ":  C17H11N5", "mw": ":  285.31 g/mol", "ec": "No data available", "appearance": "Form: powder. Color: white, off-white", "odor": "No data available", "pH": "No data available", "melting_point": "Melting point/freezing point: 239 - 243 \u00b0C (462 - 469 \u00b0F). point/freezing point", "flash_point": "()Not applicable", "evaporation_rate": "No data available", "flammability": "No data available. gas)", "vapor_pressure": "No data available", "vapor_density": "No data available", "density": "No data available. Relative density. No data available", "water_solubility": "No data available", "partition_coefficient": "No data available. n-octanol/water", "autoignition": "No data available", "decomposition": "No data available", "viscosity": "No data available", "explosive_properties": "No data available", "oxidizing_properties": "No data available", "bulk_density": "No data available", "particle_size": "No data available", "statements": [{"code": "H319", "statement": "Causes serious eye irritation.. Precautionary statement(s)"}, {"code": "P264", "statement": "Wash skin thoroughly after handling."}, {"code": "P280", "statement": "Wear protective gloves/ eye protection/ face protection."}, {"code": "P305 + P351 + P338", "statement": "IF IN EYES: Rinse cautiously with water for several minutes.. Remove contact lenses, if present and easy to do. Continue. rinsing."}, {"code": "P337 + P313", "statement": "If eye irritation persists: Get medical advice/ attention."}, {"code": "H361", "statement": "Suspected of damaging fertility or the unborn child."}], "canonical_smiles": "No data available", "isomeric_smiles": "No data available"}, {"id": 20620, "product_number": "Y0000558", "CAS_number": "86386-73-4", "product_name": "Fluconazole for peak identification", "product_brand": "Sigma-Aldrich", "supplier": {"company": ":  Sigma-Aldrich Inc.", "location": "3050 SPRUCE ST. ST. LOUIS MO  63103. UNITED STATES", "tel": ":  +1 314 771-5765", "fax": ":  +1 800 325-5052"}, "formula": ":  C13H12F2N6O", "mw": ":  306.27 g/mol", "ec": "No data available", "appearance": "Form: solid", "odor": "No data available", "pH": "No data available", "melting_point": "Melting point: 138 - 140 \u00b0C (280 - 284 \u00b0F). point/freezing point", "flash_point": "()Not applicable", "evaporation_rate": "No data available", "flammability": "No data available. gas)", "vapor_pressure": "No data available", "vapor_density": "No data available", "density": "No data available", "water_solubility": "No data available", "partition_coefficient": "No data available", "autoignition": "No data available", "decomposition": "No data available", "viscosity": "No data available", "explosive_properties": "No data available", "oxidizing_properties": "No data available", "bulk_density": "No data available", "particle_size": "No data available", "statements": [{"code": "H319", "statement": "Causes serious eye irritation.. Precautionary statement(s)"}, {"code": "P264", "statement": "Wash skin thoroughly after handling."}, {"code": "P280", "statement": "Wear protective gloves/ eye protection/ face protection."}, {"code": "P305 + P351 + P338", "statement": "IF IN EYES: Rinse cautiously with water for several minutes.. Remove contact lenses, if present and easy to do. Continue. rinsing."}, {"code": "P337 + P313", "statement": "If eye irritation persists: Get medical advice/ attention."}, {"code": "H361", "statement": "Suspected of damaging fertility or the unborn child."}], "canonical_smiles": "No data available", "isomeric_smiles": "No data available"}, {"id": 49224, "product_number": "C0980651", "CAS_number": "303-26-4", "product_name": "Cetirizine impurity A", "product_brand": "Sigma-Aldrich", "supplier": {"company": ":  Sigma-Aldrich Inc.", "location": "3050 SPRUCE ST. ST. LOUIS MO  63103. UNITED STATES", "tel": ":  +1 314 771-5765", "fax": ":  +1 800 325-5052"}, "formula": ":  C17H19ClN2", "mw": ":  286.81 g/mol", "ec": ":  206-137-4. TabulaTable(extraction_method=stream, page_number=2, top=492.0, bottom=562.0, left=80.0, right=558.0, width=478.0, height=70.0, data=\n+--------------------------------+------------------------------------------------------------------------+-------------+\n|Component                       |Classification                                                          |Concentration|\n+--------------------------------+------------------------------------------------------------------------+-------------+\n|N-(4-Chlorobenzhydryl)piperazine|                                                                        |             |\n+--------------------------------+------------------------------------------------------------------------+-------------+\n|N-(4-Chlorobenzhydryl)piperazine|Skin Irrit. 2; Eye Dam. 1; Skin Sens. 1; Repr. 2; H315, H318, H317, H361|<= 100 %     |\n+--------------------------------+------------------------------------------------------------------------+-------------+\n, additional_ops=['strip_text', 'merge_rows', 'pull_down_to_empty'])", "appearance": "Form: powder. Color: light yellow", "odor": "No data available", "pH": "No data available", "melting_point": "Melting point/range: 65 - 70 \u00b0C (149 - 158 \u00b0F). point/freezing point", "flash_point": "No data available", "evaporation_rate": "No data available", "flammability": "No data available. gas)", "vapor_pressure": "No data available", "vapor_density": "No data available", "density": "No data available. Relative density. No data available", "water_solubility": "No data available", "partition_coefficient": "No data available", "autoignition": "No data available", "decomposition": "No data available", "viscosity": "No data available", "explosive_properties": "No data available", "oxidizing_properties": "No data available", "bulk_density": "No data available", "particle_size": "No data available", "statements": [{"code": "H319", "statement": "Causes serious eye irritation.. Precautionary statement(s)"}, {"code": "P264", "statement": "Wash skin thoroughly after handling."}, {"code": "P280", "statement": "Wear protective gloves/ eye protection/ face protection."}, {"code": "P305 + P351 + P338", "statement": "IF IN EYES: Rinse cautiously with water for several minutes.. Remove contact lenses, if present and easy to do. Continue. rinsing."}, {"code": "P337 + P313", "statement": "If eye irritation persists: Get medical advice/ attention."}, {"code": "H361", "statement": "Suspected of damaging fertility or the unborn child."}], "canonical_smiles": "C1CN(CCN1)C(C2=CC=CC=C2)C3=CC=C(C=C3)Cl", "isomeric_smiles": "C1CN(CCN1)C(C2=CC=CC=C2)C3=CC=C(C=C3)Cl"}, {"id": 28859, "product_number": "S678244", "CAS_number": "61920-54-5", "product_name": "2,4-DIMETHYL-3,6-DINITROANILINE", "product_brand": "Aldrich", "supplier": {"company": ":  Sigma-Aldrich Inc.", "location": "3050 SPRUCE ST. ST. LOUIS MO  63103. UNITED STATES", "tel": ":  +1 314 771-5765", "fax": ":  +1 800 325-5052"}, "formula": ":  C8H9N3O4", "mw": ":  211,18 g/mol", "ec": "No data available", "appearance": "Form: solid", "odor": "No data available", "pH": "No data available", "melting_point": "No data available. point/freezing point", "flash_point": "No data available", "evaporation_rate": "No data available", "flammability": "No data available. gas)", "vapor_pressure": "No data available", "vapor_density": "No data available", "density": "No data available", "water_solubility": "No data available", "partition_coefficient": "log Pow: 0,096. n-octanol/water", "autoignition": "No data available. temperature", "decomposition": "No data available. temperature", "viscosity": "No data available", "explosive_properties": "No data available", "oxidizing_properties": "No data available", "bulk_density": "No data available", "particle_size": "No data available", "statements": [{"code": "H319", "statement": "Causes serious eye irritation.. Precautionary statement(s)"}, {"code": "P264", "statement": "Wash skin thoroughly after handling."}, {"code": "P280", "statement": "Wear protective gloves/ eye protection/ face protection."}, {"code": "P305 + P351 + P338", "statement": "IF IN EYES: Rinse cautiously with water for several minutes.. Remove contact lenses, if present and easy to do. Continue. rinsing."}, {"code": "P337 + P313", "statement": "If eye irritation persists: Get medical advice/ attention."}, {"code": "H361", "statement": "Suspected of damaging fertility or the unborn child."}], "canonical_smiles": "CC1=CC(=C(C(=C1[N+](=O)[O-])C)N)[N+](=O)[O-]", "isomeric_smiles": "CC1=CC(=C(C(=C1[N+](=O)[O-])C)N)[N+](=O)[O-]"}, {"id": 44565, "product_number": "81300", "CAS_number": "25322-68-3", "product_name": "Poly(ethylene glycol)", "product_brand": "Aldrich", "supplier": {"company": ":  Sigma-Aldrich Inc.", "location": "3050 SPRUCE ST. ST. LOUIS MO  63103. UNITED STATES", "tel": ":  +1 314 771-5765", "fax": ":  +1 800 325-5052"}, "formula": ":  (C2H4O)nH2O", "mw": ":  16,000 - 24,000 g/mol", "ec": ":  500-038-2. TabulaTable(extraction_method=stream, page_number=2, top=78.0, bottom=124.0, left=80.0, right=558.0, width=478.0, height=46.0, data=\n+---------+--------------+-------------+\n|Component|Classification|Concentration|\n+---------+--------------+-------------+\n|PEG 20000|              |             |\n+---------+--------------+-------------+\n|PEG 20000|              |<= 100 %     |\n+---------+--------------+-------------+\n, additional_ops=['strip_text', 'merge_rows', 'pull_down_to_empty'])", "appearance": "Form: flakes. Color: white", "odor": "No data available", "pH": "5.5 - 7.0 at 50 g/l at 25 \u00b0C (77 \u00b0F)", "melting_point": "Melting point/range: 63 - 66 \u00b0C (145 - 151 \u00b0F). point/freezing point", "flash_point": "()No data available", "evaporation_rate": "No data available", "flammability": "No data available. gas)", "vapor_pressure": "No data available", "vapor_density": "No data available", "density": "No data available. Relative density. No data available", "water_solubility": "50 g/l at 25 \u00b0C (77 \u00b0F)", "partition_coefficient": "No data available. n-octanol/water", "autoignition": "No data available. temperature", "decomposition": "No data available. temperature", "viscosity": "No data available", "explosive_properties": "No data available", "oxidizing_properties": "No data available", "bulk_density": "No data available", "particle_size": "No data available", "statements": [{"code": "H319", "statement": "Causes serious eye irritation.. Precautionary statement(s)"}, {"code": "P264", "statement": "Wash skin thoroughly after handling."}, {"code": "P280", "statement": "Wear protective gloves/ eye protection/ face protection."}, {"code": "P305 + P351 + P338", "statement": "IF IN EYES: Rinse cautiously with water for several minutes.. Remove contact lenses, if present and easy to do. Continue. rinsing."}, {"code": "P337 + P313", "statement": "If eye irritation persists: Get medical advice/ attention."}, {"code": "H361", "statement": "Suspected of damaging fertility or the unborn child."}], "canonical_smiles": "No data available", "isomeric_smiles": "No data available"}]