[{"id": 25599, "product_number": "702110", "CAS_number": "1333-86-4", "product_name": "Carbon, mesoporous", "product_brand": "Aldrich", "supplier": {"company": ":  Sigma-Aldrich Inc.", "location": "3050 SPRUCE ST. ST. LOUIS MO  63103. UNITED STATES", "tel": ":  +1 314 771-5765", "fax": ":  +1 800 325-5052"}, "formula": ":  C", "mw": ":  12.01 g/mol", "ec": "No data available", "appearance": "Form: solid. Color: black", "odor": "No data available", "pH": "No data available", "melting_point": "Melting point/range: 3,654 - 3,697 \u00b0C (6,609 - 6,687 \u00b0F). point/freezing point", "flash_point": "()No data available", "evaporation_rate": "No data available", "flammability": "May form combustible dust concentrations in air.. gas)", "vapor_pressure": "No data available", "vapor_density": "No data available", "density": "No data available", "water_solubility": "No data available", "partition_coefficient": "No data available. n-octanol/water", "autoignition": "No data available. temperature", "decomposition": "No data available. temperature", "viscosity": "No data available", "explosive_properties": "No data available", "oxidizing_properties": "No data available", "bulk_density": "No data available", "particle_size": "No data available", "statements": [{"code": "Precautionary", "statement": "none"}, {"code": "H227", "statement": "Combustible liquid.. Precautionary statement(s)"}, {"code": "P210", "statement": "Keep away from heat/ sparks/ open flames/ hot surfaces. No. smoking."}, {"code": "P280", "statement": "Wear protective gloves/ eye protection/ face protection."}, {"code": "P370 + P378", "statement": "In case of fire: Use dry sand, dry chemical or alcohol-resistant. foam for extinction."}, {"code": "P403 + P235", "statement": "Store in a well-ventilated place. Keep cool."}, {"code": "P501", "statement": "Dispose of contents/ container to an approved waste disposal. plant."}, {"code": "H315", "statement": "Causes skin irritation."}, {"code": "H227", "statement": "Combustible liquid."}, {"code": "H302", "statement": "Harmful if swallowed."}, {"code": "H351", "statement": "Suspected of causing cancer."}, {"code": "H402", "statement": "Harmful to aquatic life.. Precautionary statement(s)"}, {"code": "P201", "statement": "Obtain special instructions before use."}, {"code": "P202", "statement": "Do not handle until all safety precautions have been read and. understood."}, {"code": "P210", "statement": "Keep away from heat/ sparks/ open flames/ hot surfaces. No. smoking."}, {"code": "P264", "statement": "Wash skin thoroughly after handling."}, {"code": "P270", "statement": "Do not eat, drink or smoke when using this product."}, {"code": "P273", "statement": "Avoid release to the environment."}, {"code": "P280", "statement": "Wear protective gloves/ protective clothing/ eye protection/ face. protection."}, {"code": "P301 + P312 + P330", "statement": "IF SWALLOWED: Call a POISON CENTER/ doctor if you feel. unwell. Rinse mouth."}, {"code": "P308 + P313", "statement": "IF exposed or concerned: Get medical advice/ attention."}, {"code": "P370 + P378", "statement": "In case of fire: Use dry sand, dry chemical or alcohol-resistant. foam to extinguish."}, {"code": "P403 + P235", "statement": "Store in a well-ventilated place. Keep cool."}, {"code": "P405", "statement": "Store locked up."}, {"code": "P501", "statement": "Dispose of contents/ container to an approved waste disposal. plant."}], "canonical_smiles": "No data available", "isomeric_smiles": "No data available"}, {"id": 1548, "product_number": "294632", "CAS_number": "89-91-8", "product_name": "Methyl dimethoxyacetate", "product_brand": "Aldrich", "supplier": {"company": ":  Sigma-Aldrich Inc.", "location": "3050 SPRUCE ST. ST. LOUIS MO  63103. UNITED STATES", "tel": ":  +1 314 771-5765", "fax": ":  +1 800 325-5052"}, "formula": ":  C5H10O4", "mw": ":  134.13 g/mol", "ec": ":  201-950-0. TabulaTable(extraction_method=stream, page_number=2, top=282.0, bottom=328.0, left=80.0, right=558.0, width=478.0, height=46.0, data=\n+-----------------------+------------------+-------------+\n|Component              |Classification    |Concentration|\n+-----------------------+------------------+-------------+\n|Methyl dimethoxyacetate|                  |             |\n+-----------------------+------------------+-------------+\n|Methyl dimethoxyacetate|Flam. Liq. 4; H227|<= 100 %     |\n+-----------------------+------------------+-------------+\n, additional_ops=['strip_text', 'merge_rows', 'pull_down_to_empty'])", "appearance": "Form: clear, liquid. Color: colorless", "odor": "No data available", "pH": "No data available", "melting_point": "No data available. point/freezing point", "flash_point": "67 \u00b0C (153 \u00b0F) - closed cup", "evaporation_rate": "No data available", "flammability": "No data available. gas)", "vapor_pressure": "No data available", "vapor_density": "No data available", "density": "1.096 g/cm3 at 25 \u00b0C (77 \u00b0F) - lit.. Relative density. No data available", "water_solubility": "No data available", "partition_coefficient": "No data available. n-octanol/water", "autoignition": "No data available. temperature", "decomposition": "No data available. temperature", "viscosity": "No data available", "explosive_properties": "No data available", "oxidizing_properties": "No data available", "bulk_density": "No data available", "particle_size": "No data available", "statements": [{"code": "Precautionary", "statement": "none"}, {"code": "H227", "statement": "Combustible liquid.. Precautionary statement(s)"}, {"code": "P210", "statement": "Keep away from heat/ sparks/ open flames/ hot surfaces. No. smoking."}, {"code": "P280", "statement": "Wear protective gloves/ eye protection/ face protection."}, {"code": "P370 + P378", "statement": "In case of fire: Use dry sand, dry chemical or alcohol-resistant. foam for extinction."}, {"code": "P403 + P235", "statement": "Store in a well-ventilated place. Keep cool."}, {"code": "P501", "statement": "Dispose of contents/ container to an approved waste disposal. plant."}, {"code": "H315", "statement": "Causes skin irritation."}, {"code": "H227", "statement": "Combustible liquid."}, {"code": "H302", "statement": "Harmful if swallowed."}, {"code": "H351", "statement": "Suspected of causing cancer."}, {"code": "H402", "statement": "Harmful to aquatic life.. Precautionary statement(s)"}, {"code": "P201", "statement": "Obtain special instructions before use."}, {"code": "P202", "statement": "Do not handle until all safety precautions have been read and. understood."}, {"code": "P210", "statement": "Keep away from heat/ sparks/ open flames/ hot surfaces. No. smoking."}, {"code": "P264", "statement": "Wash skin thoroughly after handling."}, {"code": "P270", "statement": "Do not eat, drink or smoke when using this product."}, {"code": "P273", "statement": "Avoid release to the environment."}, {"code": "P280", "statement": "Wear protective gloves/ protective clothing/ eye protection/ face. protection."}, {"code": "P301 + P312 + P330", "statement": "IF SWALLOWED: Call a POISON CENTER/ doctor if you feel. unwell. Rinse mouth."}, {"code": "P308 + P313", "statement": "IF exposed or concerned: Get medical advice/ attention."}, {"code": "P370 + P378", "statement": "In case of fire: Use dry sand, dry chemical or alcohol-resistant. foam to extinguish."}, {"code": "P403 + P235", "statement": "Store in a well-ventilated place. Keep cool."}, {"code": "P405", "statement": "Store locked up."}, {"code": "P501", "statement": "Dispose of contents/ container to an approved waste disposal. plant."}], "canonical_smiles": "COC(C(=O)OC)OC", "isomeric_smiles": "COC(C(=O)OC)OC"}, {"id": 1587, "product_number": "1238217", "CAS_number": "144143-96-4", "product_name": "Eprosartan Mesylate, United States", "product_brand": "US Pharmacopeia", "supplier": {"company": ":  Sigma-Aldrich Inc.", "location": "3050 SPRUCE ST. ST. LOUIS MO  63103. UNITED STATES", "tel": ":  +1 314 771-5765", "fax": ":  +1 800 325-5052"}, "formula": "No data available", "mw": ":  520.62 g/mol", "ec": "No data available", "appearance": "No data available", "odor": "No data available", "pH": "No data available", "melting_point": "No data available", "flash_point": "No data available", "evaporation_rate": "No data available", "flammability": "No data available", "vapor_pressure": "No data available", "vapor_density": "No data available", "density": "No data available", "water_solubility": "No data available", "partition_coefficient": "No data available", "autoignition": "No data available", "decomposition": "No data available", "viscosity": "No data available", "explosive_properties": "No data available", "oxidizing_properties": "No data available", "bulk_density": "No data available", "particle_size": "No data available", "statements": [{"code": "Precautionary", "statement": "none"}, {"code": "H227", "statement": "Combustible liquid.. Precautionary statement(s)"}, {"code": "P210", "statement": "Keep away from heat/ sparks/ open flames/ hot surfaces. No. smoking."}, {"code": "P280", "statement": "Wear protective gloves/ eye protection/ face protection."}, {"code": "P370 + P378", "statement": "In case of fire: Use dry sand, dry chemical or alcohol-resistant. foam for extinction."}, {"code": "P403 + P235", "statement": "Store in a well-ventilated place. Keep cool."}, {"code": "P501", "statement": "Dispose of contents/ container to an approved waste disposal. plant."}, {"code": "H315", "statement": "Causes skin irritation."}, {"code": "H227", "statement": "Combustible liquid."}, {"code": "H302", "statement": "Harmful if swallowed."}, {"code": "H351", "statement": "Suspected of causing cancer."}, {"code": "H402", "statement": "Harmful to aquatic life.. Precautionary statement(s)"}, {"code": "P201", "statement": "Obtain special instructions before use."}, {"code": "P202", "statement": "Do not handle until all safety precautions have been read and. understood."}, {"code": "P210", "statement": "Keep away from heat/ sparks/ open flames/ hot surfaces. No. smoking."}, {"code": "P264", "statement": "Wash skin thoroughly after handling."}, {"code": "P270", "statement": "Do not eat, drink or smoke when using this product."}, {"code": "P273", "statement": "Avoid release to the environment."}, {"code": "P280", "statement": "Wear protective gloves/ protective clothing/ eye protection/ face. protection."}, {"code": "P301 + P312 + P330", "statement": "IF SWALLOWED: Call a POISON CENTER/ doctor if you feel. unwell. Rinse mouth."}, {"code": "P308 + P313", "statement": "IF exposed or concerned: Get medical advice/ attention."}, {"code": "P370 + P378", "statement": "In case of fire: Use dry sand, dry chemical or alcohol-resistant. foam to extinguish."}, {"code": "P403 + P235", "statement": "Store in a well-ventilated place. Keep cool."}, {"code": "P405", "statement": "Store locked up."}, {"code": "P501", "statement": "Dispose of contents/ container to an approved waste disposal. plant."}], "canonical_smiles": "No data available", "isomeric_smiles": "No data available"}, {"id": 25865, "product_number": "522279", "CAS_number": "33045-52-2", "product_name": "Methyl 2-methoxy-5-sulfamoylbenzoate", "product_brand": "Aldrich", "supplier": {"company": ":  Sigma-Aldrich Inc.", "location": "3050 SPRUCE ST. ST. LOUIS MO  63103. UNITED STATES", "tel": ":  +1 314 771-5765", "fax": ":  +1 800 325-5052"}, "formula": ":  C9H11NO5S", "mw": ":  245.25 g/mol", "ec": ":  251-358-1. No components need to be disclosed according to the applicable regulations.", "appearance": "Form: solid", "odor": "No data available", "pH": "No data available", "melting_point": "Melting point/range: 175 - 177 \u00b0C (347 - 351 \u00b0F) - lit.. point/freezing point", "flash_point": "()No data available", "evaporation_rate": "No data available", "flammability": "No data available. gas)", "vapor_pressure": "No data available", "vapor_density": "No data available", "density": "No data available. Relative density. No data available", "water_solubility": "No data available", "partition_coefficient": "No data available. n-octanol/water", "autoignition": "No data available. temperature", "decomposition": "No data available. temperature", "viscosity": "No data available", "explosive_properties": "No data available", "oxidizing_properties": "No data available", "bulk_density": "No data available", "particle_size": "No data available", "statements": [{"code": "Precautionary", "statement": "none"}, {"code": "H227", "statement": "Combustible liquid.. Precautionary statement(s)"}, {"code": "P210", "statement": "Keep away from heat/ sparks/ open flames/ hot surfaces. No. smoking."}, {"code": "P280", "statement": "Wear protective gloves/ eye protection/ face protection."}, {"code": "P370 + P378", "statement": "In case of fire: Use dry sand, dry chemical or alcohol-resistant. foam for extinction."}, {"code": "P403 + P235", "statement": "Store in a well-ventilated place. Keep cool."}, {"code": "P501", "statement": "Dispose of contents/ container to an approved waste disposal. plant."}, {"code": "H315", "statement": "Causes skin irritation."}, {"code": "H227", "statement": "Combustible liquid."}, {"code": "H302", "statement": "Harmful if swallowed."}, {"code": "H351", "statement": "Suspected of causing cancer."}, {"code": "H402", "statement": "Harmful to aquatic life.. Precautionary statement(s)"}, {"code": "P201", "statement": "Obtain special instructions before use."}, {"code": "P202", "statement": "Do not handle until all safety precautions have been read and. understood."}, {"code": "P210", "statement": "Keep away from heat/ sparks/ open flames/ hot surfaces. No. smoking."}, {"code": "P264", "statement": "Wash skin thoroughly after handling."}, {"code": "P270", "statement": "Do not eat, drink or smoke when using this product."}, {"code": "P273", "statement": "Avoid release to the environment."}, {"code": "P280", "statement": "Wear protective gloves/ protective clothing/ eye protection/ face. protection."}, {"code": "P301 + P312 + P330", "statement": "IF SWALLOWED: Call a POISON CENTER/ doctor if you feel. unwell. Rinse mouth."}, {"code": "P308 + P313", "statement": "IF exposed or concerned: Get medical advice/ attention."}, {"code": "P370 + P378", "statement": "In case of fire: Use dry sand, dry chemical or alcohol-resistant. foam to extinguish."}, {"code": "P403 + P235", "statement": "Store in a well-ventilated place. Keep cool."}, {"code": "P405", "statement": "Store locked up."}, {"code": "P501", "statement": "Dispose of contents/ container to an approved waste disposal. plant."}], "canonical_smiles": "COC1=C(C=C(C=C1)S(=O)(=O)N)C(=O)OC", "isomeric_smiles": "COC1=C(C=C(C=C1)S(=O)(=O)N)C(=O)OC"}, {"id": 1529, "product_number": "P55708", "CAS_number": "89-82-7", "product_name": "(R)-(+)-Pulegone", "product_brand": "Aldrich", "supplier": {"company": ":  Sigma-Aldrich Inc.", "location": "3050 SPRUCE ST. ST. LOUIS MO  63103. UNITED STATES", "tel": ":  +1 314 771-5765", "fax": ":  +1 800 325-5052"}, "formula": ":  C10H16O", "mw": ":  152.23 g/mol", "ec": ":  201-943-2. TabulaTable(extraction_method=stream, page_number=2, top=552.0, bottom=622.0, left=80.0, right=558.0, width=478.0, height=70.0, data=\n+------------+----------------------------------------------------------------------------+-------------+\n|Component   |Classification                                                              |Concentration|\n+------------+----------------------------------------------------------------------------+-------------+\n|(+)-Pulegone|                                                                            |             |\n+------------+----------------------------------------------------------------------------+-------------+\n|(+)-Pulegone|Flam. Liq. 4; Acute Tox. 4; Carc. 2; Aquatic Acute 3; H227, H302, H351, H402|<= 100 %     |\n+------------+----------------------------------------------------------------------------+-------------+\n, additional_ops=['strip_text', 'merge_rows', 'pull_down_to_empty'])", "appearance": "Form: clear, liquid. Color: light brown", "odor": "No data available", "pH": "No data available", "melting_point": "Melting point/range: < 25 \u00b0C (< 77 \u00b0F). point/freezing point", "flash_point": "82 \u00b0C (180 \u00b0F) - closed cup", "evaporation_rate": "No data available", "flammability": "No data available. gas)", "vapor_pressure": "No data available", "vapor_density": "No data available", "density": "0.937 g/cm3 at 25 \u00b0C (77 \u00b0F) - lit.. Relative density. No data available", "water_solubility": "No data available", "partition_coefficient": "No data available. n-octanol/water", "autoignition": "No data available. temperature", "decomposition": "No data available. temperature", "viscosity": "No data available", "explosive_properties": "No data available", "oxidizing_properties": "No data available", "bulk_density": "No data available", "particle_size": "No data available", "statements": [{"code": "Precautionary", "statement": "none"}, {"code": "H227", "statement": "Combustible liquid.. Precautionary statement(s)"}, {"code": "P210", "statement": "Keep away from heat/ sparks/ open flames/ hot surfaces. No. smoking."}, {"code": "P280", "statement": "Wear protective gloves/ eye protection/ face protection."}, {"code": "P370 + P378", "statement": "In case of fire: Use dry sand, dry chemical or alcohol-resistant. foam for extinction."}, {"code": "P403 + P235", "statement": "Store in a well-ventilated place. Keep cool."}, {"code": "P501", "statement": "Dispose of contents/ container to an approved waste disposal. plant."}, {"code": "H315", "statement": "Causes skin irritation."}, {"code": "H227", "statement": "Combustible liquid."}, {"code": "H302", "statement": "Harmful if swallowed."}, {"code": "H351", "statement": "Suspected of causing cancer."}, {"code": "H402", "statement": "Harmful to aquatic life.. Precautionary statement(s)"}, {"code": "P201", "statement": "Obtain special instructions before use."}, {"code": "P202", "statement": "Do not handle until all safety precautions have been read and. understood."}, {"code": "P210", "statement": "Keep away from heat/ sparks/ open flames/ hot surfaces. No. smoking."}, {"code": "P264", "statement": "Wash skin thoroughly after handling."}, {"code": "P270", "statement": "Do not eat, drink or smoke when using this product."}, {"code": "P273", "statement": "Avoid release to the environment."}, {"code": "P280", "statement": "Wear protective gloves/ protective clothing/ eye protection/ face. protection."}, {"code": "P301 + P312 + P330", "statement": "IF SWALLOWED: Call a POISON CENTER/ doctor if you feel. unwell. Rinse mouth."}, {"code": "P308 + P313", "statement": "IF exposed or concerned: Get medical advice/ attention."}, {"code": "P370 + P378", "statement": "In case of fire: Use dry sand, dry chemical or alcohol-resistant. foam to extinguish."}, {"code": "P403 + P235", "statement": "Store in a well-ventilated place. Keep cool."}, {"code": "P405", "statement": "Store locked up."}, {"code": "P501", "statement": "Dispose of contents/ container to an approved waste disposal. plant."}], "canonical_smiles": "CC1CCC(=C(C)C)C(=O)C1", "isomeric_smiles": "C[C@@H]1CCC(=C(C)C)C(=O)C1"}, {"id": 29898, "product_number": "SML0022", "CAS_number": "307525-40-2", "product_name": "IMB-10", "product_brand": "Sigma", "supplier": {"company": ":  Sigma-Aldrich Inc.", "location": "3050 SPRUCE ST. ST. LOUIS MO  63103. UNITED STATES", "tel": ":  +1 314 771-5765", "fax": ":  +1 800 325-5052"}, "formula": ":  C19H15NOS2", "mw": ":  337.46 g/mol", "ec": "No data available", "appearance": "Form: powder. Color: yellow", "odor": "No data available", "pH": "No data available", "melting_point": "No data available. point/freezing point", "flash_point": "No data available", "evaporation_rate": "No data available", "flammability": "No data available. gas)", "vapor_pressure": "No data available", "vapor_density": "No data available", "density": "1.32 g/cm3 at 20 \u00b0C (68 \u00b0F) at 1,013 hPa. Relative density. No data available", "water_solubility": "No data available", "partition_coefficient": "No data available. n-octanol/water", "autoignition": "No data available. temperature", "decomposition": "No data available. temperature", "viscosity": "No data available", "explosive_properties": "No data available", "oxidizing_properties": "No data available", "bulk_density": "No data available", "particle_size": "No data available", "statements": [{"code": "Precautionary", "statement": "none"}, {"code": "H227", "statement": "Combustible liquid.. Precautionary statement(s)"}, {"code": "P210", "statement": "Keep away from heat/ sparks/ open flames/ hot surfaces. No. smoking."}, {"code": "P280", "statement": "Wear protective gloves/ eye protection/ face protection."}, {"code": "P370 + P378", "statement": "In case of fire: Use dry sand, dry chemical or alcohol-resistant. foam for extinction."}, {"code": "P403 + P235", "statement": "Store in a well-ventilated place. Keep cool."}, {"code": "P501", "statement": "Dispose of contents/ container to an approved waste disposal. plant."}, {"code": "H315", "statement": "Causes skin irritation."}, {"code": "H227", "statement": "Combustible liquid."}, {"code": "H302", "statement": "Harmful if swallowed."}, {"code": "H351", "statement": "Suspected of causing cancer."}, {"code": "H402", "statement": "Harmful to aquatic life.. Precautionary statement(s)"}, {"code": "P201", "statement": "Obtain special instructions before use."}, {"code": "P202", "statement": "Do not handle until all safety precautions have been read and. understood."}, {"code": "P210", "statement": "Keep away from heat/ sparks/ open flames/ hot surfaces. No. smoking."}, {"code": "P264", "statement": "Wash skin thoroughly after handling."}, {"code": "P270", "statement": "Do not eat, drink or smoke when using this product."}, {"code": "P273", "statement": "Avoid release to the environment."}, {"code": "P280", "statement": "Wear protective gloves/ protective clothing/ eye protection/ face. protection."}, {"code": "P301 + P312 + P330", "statement": "IF SWALLOWED: Call a POISON CENTER/ doctor if you feel. unwell. Rinse mouth."}, {"code": "P308 + P313", "statement": "IF exposed or concerned: Get medical advice/ attention."}, {"code": "P370 + P378", "statement": "In case of fire: Use dry sand, dry chemical or alcohol-resistant. foam to extinguish."}, {"code": "P403 + P235", "statement": "Store in a well-ventilated place. Keep cool."}, {"code": "P405", "statement": "Store locked up."}, {"code": "P501", "statement": "Dispose of contents/ container to an approved waste disposal. plant."}], "canonical_smiles": "CC1=CC=CC=C1N2C(=O)C(=CC=CC3=CC=CC=C3)SC2=S", "isomeric_smiles": "CC1=CC=CC=C1N2C(=O)/C(=C/C=C/C3=CC=CC=C3)/SC2=S"}]