[{"id": 3910, "product_number": "705160", "CAS_number": "66127-00-2", "product_name": "3,5,6,8-Tetrabromo-1,10-phenanthroline", "product_brand": "Aldrich", "supplier": {"company": ":  Sigma-Aldrich Inc.", "location": "3050 SPRUCE ST. ST. LOUIS MO  63103. UNITED STATES", "tel": ":  +1 314 771-5765", "fax": ":  +1 800 325-5052"}, "formula": ":  C12H4Br4N2", "mw": ":  495.79 g/mol", "ec": "No data available", "appearance": "Form: solid", "odor": "No data available", "pH": "No data available", "melting_point": "No data available. point/freezing point", "flash_point": "()No data available", "evaporation_rate": "No data available", "flammability": "No data available. gas)", "vapor_pressure": "No data available", "vapor_density": "No data available", "density": "No data available. Relative density. No data available", "water_solubility": "No data available", "partition_coefficient": "log Pow: 5.158. n-octanol/water", "autoignition": "No data available. temperature", "decomposition": "No data available. temperature", "viscosity": "No data available", "explosive_properties": "No data available", "oxidizing_properties": "No data available", "bulk_density": "No data available", "particle_size": "No data available", "statements": [{"code": "H318", "statement": "Causes serious eye damage."}, {"code": "H413", "statement": "May cause long lasting harmful effects to aquatic life.. Precautionary statement(s)"}, {"code": "P273", "statement": "Avoid release to the environment."}, {"code": "P280", "statement": "Wear protective gloves/ eye protection/ face protection."}, {"code": "P305 + P351 + P338", "statement": "IF IN EYES: Rinse cautiously with water for several minutes.. Remove contact lenses, if present and easy to do. Continue. rinsing."}, {"code": "P310", "statement": "Immediately call a POISON CENTER/ doctor."}, {"code": "P501", "statement": "Dispose of contents/ container to an approved waste disposal. plant."}, {"code": "H315", "statement": "Causes skin irritation."}, {"code": "H319", "statement": "Causes serious eye irritation."}, {"code": "H335", "statement": "May cause respiratory irritation.. Precautionary statement(s)"}, {"code": "P261", "statement": "Avoid breathing dust/ fume/ gas/ mist/ vapours/ spray."}, {"code": "P264", "statement": "Wash skin thoroughly after handling."}, {"code": "P271", "statement": "Use only outdoors or in a well-ventilated area."}, {"code": "P280", "statement": "Wear protective gloves/ eye protection/ face protection."}, {"code": "P302 + P352", "statement": "IF ON SKIN: Wash with plenty of soap and water."}, {"code": "P304 + P340", "statement": "IF INHALED: Remove victim to fresh air and keep at rest in a. position comfortable for breathing."}, {"code": "P305 + P351 + P338", "statement": "IF IN EYES: Rinse cautiously with water for several minutes.. Remove contact lenses, if present and easy to do. Continue. rinsing."}, {"code": "P312", "statement": "Call a POISON CENTER/doctor if you feel unwell."}, {"code": "P321", "statement": "Specific treatment (see supplemental first aid instructions on. this label)."}, {"code": "P332 + P313", "statement": "If skin irritation occurs: Get medical advice/ attention."}, {"code": "P337 + P313", "statement": "If eye irritation persists: Get medical advice/ attention."}, {"code": "P362", "statement": "Take off contaminated clothing and wash before reuse."}, {"code": "P403 + P233", "statement": "Store in a well-ventilated place. Keep container tightly closed."}, {"code": "P405", "statement": "Store locked up."}, {"code": "P501", "statement": "Dispose of contents/ container to an approved waste disposal. plant."}, {"code": "H301", "statement": "Toxic if swallowed.. Precautionary statement(s)"}, {"code": "P264", "statement": "Wash skin thoroughly after handling."}, {"code": "P270", "statement": "Do not eat, drink or smoke when using this product."}, {"code": "P301 + P310", "statement": "IF SWALLOWED: Immediately call a POISON CENTER/doctor."}, {"code": "P321", "statement": "Specific treatment (see supplemental first aid instructions on. this label)."}, {"code": "P330", "statement": "Rinse mouth."}, {"code": "P405", "statement": "Store locked up."}, {"code": "P501", "statement": "Dispose of contents/ container to an approved waste disposal. plant."}, {"code": "H302 + H312 + H332", "statement": "Harmful if swallowed, in contact with skin or if inhaled.. Precautionary statement(s)"}, {"code": "P261", "statement": "Avoid breathing dust/ fume/ gas/ mist/ vapours/ spray."}, {"code": "P264", "statement": "Wash skin thoroughly after handling."}, {"code": "P270", "statement": "Do not eat, drink or smoke when using this product."}, {"code": "P271", "statement": "Use only outdoors or in a well-ventilated area."}, {"code": "P280", "statement": "Wear protective gloves/ protective clothing."}, {"code": "P301 + P312 + P330", "statement": "IF SWALLOWED: Call a POISON CENTER/doctor if you feel. unwell. Rinse mouth."}, {"code": "P302 + P352 + P312", "statement": "IF ON SKIN: Wash with plenty of water. Call a POISON. CENTER/doctor if you feel unwell."}, {"code": "P304 + P340 + P312", "statement": "IF INHALED: Remove person to fresh air and keep comfortable. for breathing. Call a POISON CENTER/doctor if you feel unwell."}, {"code": "P363", "statement": "Wash contaminated clothing before reuse."}, {"code": "P501", "statement": "Dispose of contents/ container to an approved waste disposal. plant."}], "canonical_smiles": "C1=C(C=NC2=C1C(=C(C3=C2N=CC(=C3)Br)Br)Br)Br", "isomeric_smiles": "C1=C(C=NC2=C1C(=C(C3=C2N=CC(=C3)Br)Br)Br)Br"}, {"id": 3871, "product_number": "593060", "CAS_number": "406482-20-0", "product_name": "2,6-Difluoro-4-methoxyphenylboronic acid", "product_brand": "Aldrich", "supplier": {"company": ":  Sigma-Aldrich Inc.", "location": "3050 SPRUCE ST. ST. LOUIS MO  63103. UNITED STATES", "tel": ":  +1 314 771-5765", "fax": ":  +1 800 325-5052"}, "formula": "No data available", "mw": ":  187.94 g/mol", "ec": "No data available", "appearance": "Form: solid", "odor": "No data available", "pH": "No data available", "melting_point": "Melting point/range: 125 - 130 \u00b0C (257 - 266 \u00b0F) - lit.. point/freezing point", "flash_point": "()No data available", "evaporation_rate": "No data available", "flammability": "No data available. gas)", "vapor_pressure": "No data available", "vapor_density": "No data available", "density": "No data available", "water_solubility": "No data available", "partition_coefficient": "No data available. n-octanol/water", "autoignition": "No data available", "decomposition": "No data available. temperature", "viscosity": "No data available", "explosive_properties": "No data available", "oxidizing_properties": "No data available", "bulk_density": "No data available", "particle_size": "No data available", "statements": [{"code": "H318", "statement": "Causes serious eye damage."}, {"code": "H413", "statement": "May cause long lasting harmful effects to aquatic life.. Precautionary statement(s)"}, {"code": "P273", "statement": "Avoid release to the environment."}, {"code": "P280", "statement": "Wear protective gloves/ eye protection/ face protection."}, {"code": "P305 + P351 + P338", "statement": "IF IN EYES: Rinse cautiously with water for several minutes.. Remove contact lenses, if present and easy to do. Continue. rinsing."}, {"code": "P310", "statement": "Immediately call a POISON CENTER/ doctor."}, {"code": "P501", "statement": "Dispose of contents/ container to an approved waste disposal. plant."}, {"code": "H315", "statement": "Causes skin irritation."}, {"code": "H319", "statement": "Causes serious eye irritation."}, {"code": "H335", "statement": "May cause respiratory irritation.. Precautionary statement(s)"}, {"code": "P261", "statement": "Avoid breathing dust/ fume/ gas/ mist/ vapours/ spray."}, {"code": "P264", "statement": "Wash skin thoroughly after handling."}, {"code": "P271", "statement": "Use only outdoors or in a well-ventilated area."}, {"code": "P280", "statement": "Wear protective gloves/ eye protection/ face protection."}, {"code": "P302 + P352", "statement": "IF ON SKIN: Wash with plenty of soap and water."}, {"code": "P304 + P340", "statement": "IF INHALED: Remove victim to fresh air and keep at rest in a. position comfortable for breathing."}, {"code": "P305 + P351 + P338", "statement": "IF IN EYES: Rinse cautiously with water for several minutes.. Remove contact lenses, if present and easy to do. Continue. rinsing."}, {"code": "P312", "statement": "Call a POISON CENTER/doctor if you feel unwell."}, {"code": "P321", "statement": "Specific treatment (see supplemental first aid instructions on. this label)."}, {"code": "P332 + P313", "statement": "If skin irritation occurs: Get medical advice/ attention."}, {"code": "P337 + P313", "statement": "If eye irritation persists: Get medical advice/ attention."}, {"code": "P362", "statement": "Take off contaminated clothing and wash before reuse."}, {"code": "P403 + P233", "statement": "Store in a well-ventilated place. Keep container tightly closed."}, {"code": "P405", "statement": "Store locked up."}, {"code": "P501", "statement": "Dispose of contents/ container to an approved waste disposal. plant."}, {"code": "H301", "statement": "Toxic if swallowed.. Precautionary statement(s)"}, {"code": "P264", "statement": "Wash skin thoroughly after handling."}, {"code": "P270", "statement": "Do not eat, drink or smoke when using this product."}, {"code": "P301 + P310", "statement": "IF SWALLOWED: Immediately call a POISON CENTER/doctor."}, {"code": "P321", "statement": "Specific treatment (see supplemental first aid instructions on. this label)."}, {"code": "P330", "statement": "Rinse mouth."}, {"code": "P405", "statement": "Store locked up."}, {"code": "P501", "statement": "Dispose of contents/ container to an approved waste disposal. plant."}, {"code": "H302 + H312 + H332", "statement": "Harmful if swallowed, in contact with skin or if inhaled.. Precautionary statement(s)"}, {"code": "P261", "statement": "Avoid breathing dust/ fume/ gas/ mist/ vapours/ spray."}, {"code": "P264", "statement": "Wash skin thoroughly after handling."}, {"code": "P270", "statement": "Do not eat, drink or smoke when using this product."}, {"code": "P271", "statement": "Use only outdoors or in a well-ventilated area."}, {"code": "P280", "statement": "Wear protective gloves/ protective clothing."}, {"code": "P301 + P312 + P330", "statement": "IF SWALLOWED: Call a POISON CENTER/doctor if you feel. unwell. Rinse mouth."}, {"code": "P302 + P352 + P312", "statement": "IF ON SKIN: Wash with plenty of water. Call a POISON. CENTER/doctor if you feel unwell."}, {"code": "P304 + P340 + P312", "statement": "IF INHALED: Remove person to fresh air and keep comfortable. for breathing. Call a POISON CENTER/doctor if you feel unwell."}, {"code": "P363", "statement": "Wash contaminated clothing before reuse."}, {"code": "P501", "statement": "Dispose of contents/ container to an approved waste disposal. plant."}], "canonical_smiles": "B(C1=C(C=C(C=C1F)OC)F)(O)O", "isomeric_smiles": "B(C1=C(C=C(C=C1F)OC)F)(O)O"}, {"id": 1830, "product_number": "904457", "CAS_number": "7631-86-9", "product_name": "Silica, monodisperse, non-porous, 1.0 \u00b5m", "product_brand": "Aldrich", "supplier": {"company": ":  Sigma-Aldrich Inc.", "location": "3050 SPRUCE ST. ST. LOUIS MO  63103. UNITED STATES", "tel": ":  +1 314 771-5765", "fax": ":  +1 800 325-5052"}, "formula": ":  SiO2", "mw": ":  60.08 g/mol", "ec": "No data available", "appearance": "Form: powder. Color: white", "odor": "Not applicable", "pH": "3.7 - 4.7 at >= 40 g/l at 25 \u00b0C (77 \u00b0F)", "melting_point": "Melting point: 1,713 \u00b0C (3,115 \u00b0F) - (ECHA). point/freezing point", "flash_point": "()Not applicable", "evaporation_rate": "No data available", "flammability": "No data available. gas)", "vapor_pressure": "No data available", "vapor_density": "No data available", "density": "2.56 g/cm3. Relative density. No data available", "water_solubility": "ca.0.076 g/l at 37 \u00b0C (99 \u00b0F) - OECD Test Guideline 105 -. slightly soluble", "partition_coefficient": "Not applicable for inorganic substances. n-octanol/water", "autoignition": "does not ignite. temperature", "decomposition": "No data available. temperature", "viscosity": "No data available", "explosive_properties": "No data available", "oxidizing_properties": "No data available", "bulk_density": "No data available", "particle_size": "No data available", "statements": [{"code": "H318", "statement": "Causes serious eye damage."}, {"code": "H413", "statement": "May cause long lasting harmful effects to aquatic life.. Precautionary statement(s)"}, {"code": "P273", "statement": "Avoid release to the environment."}, {"code": "P280", "statement": "Wear protective gloves/ eye protection/ face protection."}, {"code": "P305 + P351 + P338", "statement": "IF IN EYES: Rinse cautiously with water for several minutes.. Remove contact lenses, if present and easy to do. Continue. rinsing."}, {"code": "P310", "statement": "Immediately call a POISON CENTER/ doctor."}, {"code": "P501", "statement": "Dispose of contents/ container to an approved waste disposal. plant."}, {"code": "H315", "statement": "Causes skin irritation."}, {"code": "H319", "statement": "Causes serious eye irritation."}, {"code": "H335", "statement": "May cause respiratory irritation.. Precautionary statement(s)"}, {"code": "P261", "statement": "Avoid breathing dust/ fume/ gas/ mist/ vapours/ spray."}, {"code": "P264", "statement": "Wash skin thoroughly after handling."}, {"code": "P271", "statement": "Use only outdoors or in a well-ventilated area."}, {"code": "P280", "statement": "Wear protective gloves/ eye protection/ face protection."}, {"code": "P302 + P352", "statement": "IF ON SKIN: Wash with plenty of soap and water."}, {"code": "P304 + P340", "statement": "IF INHALED: Remove victim to fresh air and keep at rest in a. position comfortable for breathing."}, {"code": "P305 + P351 + P338", "statement": "IF IN EYES: Rinse cautiously with water for several minutes.. Remove contact lenses, if present and easy to do. Continue. rinsing."}, {"code": "P312", "statement": "Call a POISON CENTER/doctor if you feel unwell."}, {"code": "P321", "statement": "Specific treatment (see supplemental first aid instructions on. this label)."}, {"code": "P332 + P313", "statement": "If skin irritation occurs: Get medical advice/ attention."}, {"code": "P337 + P313", "statement": "If eye irritation persists: Get medical advice/ attention."}, {"code": "P362", "statement": "Take off contaminated clothing and wash before reuse."}, {"code": "P403 + P233", "statement": "Store in a well-ventilated place. Keep container tightly closed."}, {"code": "P405", "statement": "Store locked up."}, {"code": "P501", "statement": "Dispose of contents/ container to an approved waste disposal. plant."}, {"code": "H301", "statement": "Toxic if swallowed.. Precautionary statement(s)"}, {"code": "P264", "statement": "Wash skin thoroughly after handling."}, {"code": "P270", "statement": "Do not eat, drink or smoke when using this product."}, {"code": "P301 + P310", "statement": "IF SWALLOWED: Immediately call a POISON CENTER/doctor."}, {"code": "P321", "statement": "Specific treatment (see supplemental first aid instructions on. this label)."}, {"code": "P330", "statement": "Rinse mouth."}, {"code": "P405", "statement": "Store locked up."}, {"code": "P501", "statement": "Dispose of contents/ container to an approved waste disposal. plant."}, {"code": "H302 + H312 + H332", "statement": "Harmful if swallowed, in contact with skin or if inhaled.. Precautionary statement(s)"}, {"code": "P261", "statement": "Avoid breathing dust/ fume/ gas/ mist/ vapours/ spray."}, {"code": "P264", "statement": "Wash skin thoroughly after handling."}, {"code": "P270", "statement": "Do not eat, drink or smoke when using this product."}, {"code": "P271", "statement": "Use only outdoors or in a well-ventilated area."}, {"code": "P280", "statement": "Wear protective gloves/ protective clothing."}, {"code": "P301 + P312 + P330", "statement": "IF SWALLOWED: Call a POISON CENTER/doctor if you feel. unwell. Rinse mouth."}, {"code": "P302 + P352 + P312", "statement": "IF ON SKIN: Wash with plenty of water. Call a POISON. CENTER/doctor if you feel unwell."}, {"code": "P304 + P340 + P312", "statement": "IF INHALED: Remove person to fresh air and keep comfortable. for breathing. Call a POISON CENTER/doctor if you feel unwell."}, {"code": "P363", "statement": "Wash contaminated clothing before reuse."}, {"code": "P501", "statement": "Dispose of contents/ container to an approved waste disposal. plant."}], "canonical_smiles": "No data available", "isomeric_smiles": "No data available"}, {"id": 3411, "product_number": "720194", "CAS_number": "22276-95-5", "product_name": "7-Bromo-6-chloro-7-deazapurine", "product_brand": "Aldrich", "supplier": {"company": ":  Sigma-Aldrich Inc.", "location": "3050 SPRUCE ST. ST. LOUIS MO  63103. UNITED STATES", "tel": ":  +1 314 771-5765", "fax": ":  +1 800 325-5052"}, "formula": ":  C6H3BrClN3", "mw": ":  232.47 g/mol", "ec": "No data available", "appearance": "Form: solid", "odor": "No data available", "pH": "No data available", "melting_point": "Melting point/range: 221 - 225 \u00b0C (430 - 437 \u00b0F). point/freezing point", "flash_point": "()No data available", "evaporation_rate": "No data available", "flammability": "No data available. gas)", "vapor_pressure": "No data available", "vapor_density": "No data available", "density": "No data available", "water_solubility": "No data available", "partition_coefficient": "log Pow: 1.946. n-octanol/water", "autoignition": "No data available", "decomposition": "No data available. temperature", "viscosity": "No data available", "explosive_properties": "No data available", "oxidizing_properties": "No data available", "bulk_density": "No data available", "particle_size": "No data available", "statements": [{"code": "H318", "statement": "Causes serious eye damage."}, {"code": "H413", "statement": "May cause long lasting harmful effects to aquatic life.. Precautionary statement(s)"}, {"code": "P273", "statement": "Avoid release to the environment."}, {"code": "P280", "statement": "Wear protective gloves/ eye protection/ face protection."}, {"code": "P305 + P351 + P338", "statement": "IF IN EYES: Rinse cautiously with water for several minutes.. Remove contact lenses, if present and easy to do. Continue. rinsing."}, {"code": "P310", "statement": "Immediately call a POISON CENTER/ doctor."}, {"code": "P501", "statement": "Dispose of contents/ container to an approved waste disposal. plant."}, {"code": "H315", "statement": "Causes skin irritation."}, {"code": "H319", "statement": "Causes serious eye irritation."}, {"code": "H335", "statement": "May cause respiratory irritation.. Precautionary statement(s)"}, {"code": "P261", "statement": "Avoid breathing dust/ fume/ gas/ mist/ vapours/ spray."}, {"code": "P264", "statement": "Wash skin thoroughly after handling."}, {"code": "P271", "statement": "Use only outdoors or in a well-ventilated area."}, {"code": "P280", "statement": "Wear protective gloves/ eye protection/ face protection."}, {"code": "P302 + P352", "statement": "IF ON SKIN: Wash with plenty of soap and water."}, {"code": "P304 + P340", "statement": "IF INHALED: Remove victim to fresh air and keep at rest in a. position comfortable for breathing."}, {"code": "P305 + P351 + P338", "statement": "IF IN EYES: Rinse cautiously with water for several minutes.. Remove contact lenses, if present and easy to do. Continue. rinsing."}, {"code": "P312", "statement": "Call a POISON CENTER/doctor if you feel unwell."}, {"code": "P321", "statement": "Specific treatment (see supplemental first aid instructions on. this label)."}, {"code": "P332 + P313", "statement": "If skin irritation occurs: Get medical advice/ attention."}, {"code": "P337 + P313", "statement": "If eye irritation persists: Get medical advice/ attention."}, {"code": "P362", "statement": "Take off contaminated clothing and wash before reuse."}, {"code": "P403 + P233", "statement": "Store in a well-ventilated place. Keep container tightly closed."}, {"code": "P405", "statement": "Store locked up."}, {"code": "P501", "statement": "Dispose of contents/ container to an approved waste disposal. plant."}, {"code": "H301", "statement": "Toxic if swallowed.. Precautionary statement(s)"}, {"code": "P264", "statement": "Wash skin thoroughly after handling."}, {"code": "P270", "statement": "Do not eat, drink or smoke when using this product."}, {"code": "P301 + P310", "statement": "IF SWALLOWED: Immediately call a POISON CENTER/doctor."}, {"code": "P321", "statement": "Specific treatment (see supplemental first aid instructions on. this label)."}, {"code": "P330", "statement": "Rinse mouth."}, {"code": "P405", "statement": "Store locked up."}, {"code": "P501", "statement": "Dispose of contents/ container to an approved waste disposal. plant."}, {"code": "H302 + H312 + H332", "statement": "Harmful if swallowed, in contact with skin or if inhaled.. Precautionary statement(s)"}, {"code": "P261", "statement": "Avoid breathing dust/ fume/ gas/ mist/ vapours/ spray."}, {"code": "P264", "statement": "Wash skin thoroughly after handling."}, {"code": "P270", "statement": "Do not eat, drink or smoke when using this product."}, {"code": "P271", "statement": "Use only outdoors or in a well-ventilated area."}, {"code": "P280", "statement": "Wear protective gloves/ protective clothing."}, {"code": "P301 + P312 + P330", "statement": "IF SWALLOWED: Call a POISON CENTER/doctor if you feel. unwell. Rinse mouth."}, {"code": "P302 + P352 + P312", "statement": "IF ON SKIN: Wash with plenty of water. Call a POISON. CENTER/doctor if you feel unwell."}, {"code": "P304 + P340 + P312", "statement": "IF INHALED: Remove person to fresh air and keep comfortable. for breathing. Call a POISON CENTER/doctor if you feel unwell."}, {"code": "P363", "statement": "Wash contaminated clothing before reuse."}, {"code": "P501", "statement": "Dispose of contents/ container to an approved waste disposal. plant."}], "canonical_smiles": "C1=C(C2=C(N1)N=CN=C2Cl)Br", "isomeric_smiles": "C1=C(C2=C(N1)N=CN=C2Cl)Br"}, {"id": 3433, "product_number": "341622", "CAS_number": "14516-54-2", "product_name": "Bromopentacarbonylmanganese(I)", "product_brand": "Aldrich", "supplier": {"company": ":  Sigma-Aldrich Inc.", "location": "3050 SPRUCE ST. ST. LOUIS MO  63103. UNITED STATES", "tel": ":  +1 314 771-5765", "fax": ":  +1 800 325-5052"}, "formula": ":  C5BrMnO5", "mw": ":  274.89 g/mol", "ec": ":  238-522-8. TabulaTable(extraction_method=stream, page_number=2, top=367.0, bottom=425.0, left=80.0, right=558.0, width=478.0, height=58.0, data=\n+------------------------------+------------------------------+-------------+\n|Component                     |Classification                |Concentration|\n+------------------------------+------------------------------+-------------+\n|Bromopentacarbonylmanganese(I)|                              |             |\n+------------------------------+------------------------------+-------------+\n|Bromopentacarbonylmanganese(I)|Acute Tox. 4; H302, H332, H312|<= 100 %     |\n+------------------------------+------------------------------+-------------+\n, additional_ops=['strip_text', 'merge_rows', 'pull_down_to_empty'])", "appearance": "Form: powder. Colour: orange", "odor": "No data available", "pH": "No data available", "melting_point": "No data available. point/freezing point", "flash_point": "()No data available", "evaporation_rate": "No data available", "flammability": "No data available. gas)", "vapor_pressure": "No data available", "vapor_density": "No data available", "density": "No data available", "water_solubility": "No data available", "partition_coefficient": "No data available. n-octanol/water", "autoignition": "No data available", "decomposition": "No data available. temperature", "viscosity": "No data available", "explosive_properties": "No data available", "oxidizing_properties": "No data available", "bulk_density": "No data available", "particle_size": "No data available", "statements": [{"code": "H318", "statement": "Causes serious eye damage."}, {"code": "H413", "statement": "May cause long lasting harmful effects to aquatic life.. Precautionary statement(s)"}, {"code": "P273", "statement": "Avoid release to the environment."}, {"code": "P280", "statement": "Wear protective gloves/ eye protection/ face protection."}, {"code": "P305 + P351 + P338", "statement": "IF IN EYES: Rinse cautiously with water for several minutes.. Remove contact lenses, if present and easy to do. Continue. rinsing."}, {"code": "P310", "statement": "Immediately call a POISON CENTER/ doctor."}, {"code": "P501", "statement": "Dispose of contents/ container to an approved waste disposal. plant."}, {"code": "H315", "statement": "Causes skin irritation."}, {"code": "H319", "statement": "Causes serious eye irritation."}, {"code": "H335", "statement": "May cause respiratory irritation.. Precautionary statement(s)"}, {"code": "P261", "statement": "Avoid breathing dust/ fume/ gas/ mist/ vapours/ spray."}, {"code": "P264", "statement": "Wash skin thoroughly after handling."}, {"code": "P271", "statement": "Use only outdoors or in a well-ventilated area."}, {"code": "P280", "statement": "Wear protective gloves/ eye protection/ face protection."}, {"code": "P302 + P352", "statement": "IF ON SKIN: Wash with plenty of soap and water."}, {"code": "P304 + P340", "statement": "IF INHALED: Remove victim to fresh air and keep at rest in a. position comfortable for breathing."}, {"code": "P305 + P351 + P338", "statement": "IF IN EYES: Rinse cautiously with water for several minutes.. Remove contact lenses, if present and easy to do. Continue. rinsing."}, {"code": "P312", "statement": "Call a POISON CENTER/doctor if you feel unwell."}, {"code": "P321", "statement": "Specific treatment (see supplemental first aid instructions on. this label)."}, {"code": "P332 + P313", "statement": "If skin irritation occurs: Get medical advice/ attention."}, {"code": "P337 + P313", "statement": "If eye irritation persists: Get medical advice/ attention."}, {"code": "P362", "statement": "Take off contaminated clothing and wash before reuse."}, {"code": "P403 + P233", "statement": "Store in a well-ventilated place. Keep container tightly closed."}, {"code": "P405", "statement": "Store locked up."}, {"code": "P501", "statement": "Dispose of contents/ container to an approved waste disposal. plant."}, {"code": "H301", "statement": "Toxic if swallowed.. Precautionary statement(s)"}, {"code": "P264", "statement": "Wash skin thoroughly after handling."}, {"code": "P270", "statement": "Do not eat, drink or smoke when using this product."}, {"code": "P301 + P310", "statement": "IF SWALLOWED: Immediately call a POISON CENTER/doctor."}, {"code": "P321", "statement": "Specific treatment (see supplemental first aid instructions on. this label)."}, {"code": "P330", "statement": "Rinse mouth."}, {"code": "P405", "statement": "Store locked up."}, {"code": "P501", "statement": "Dispose of contents/ container to an approved waste disposal. plant."}, {"code": "H302 + H312 + H332", "statement": "Harmful if swallowed, in contact with skin or if inhaled.. Precautionary statement(s)"}, {"code": "P261", "statement": "Avoid breathing dust/ fume/ gas/ mist/ vapours/ spray."}, {"code": "P264", "statement": "Wash skin thoroughly after handling."}, {"code": "P270", "statement": "Do not eat, drink or smoke when using this product."}, {"code": "P271", "statement": "Use only outdoors or in a well-ventilated area."}, {"code": "P280", "statement": "Wear protective gloves/ protective clothing."}, {"code": "P301 + P312 + P330", "statement": "IF SWALLOWED: Call a POISON CENTER/doctor if you feel. unwell. Rinse mouth."}, {"code": "P302 + P352 + P312", "statement": "IF ON SKIN: Wash with plenty of water. Call a POISON. CENTER/doctor if you feel unwell."}, {"code": "P304 + P340 + P312", "statement": "IF INHALED: Remove person to fresh air and keep comfortable. for breathing. Call a POISON CENTER/doctor if you feel unwell."}, {"code": "P363", "statement": "Wash contaminated clothing before reuse."}, {"code": "P501", "statement": "Dispose of contents/ container to an approved waste disposal. plant."}], "canonical_smiles": "[C-]#[O+].[C-]#[O+].[C-]#[O+].[C-]#[O+].[C-]#[O+].[Mn].[Br-]", "isomeric_smiles": "[C-]#[O+].[C-]#[O+].[C-]#[O+].[C-]#[O+].[C-]#[O+].[Mn].[Br-]"}, {"id": 3531, "product_number": "88754", "CAS_number": "223121-01-5", "product_name": "(S)-1-[(RP)-2-(Di-tert-", "product_brand": "Aldrich", "supplier": {"company": ":  Sigma-Aldrich Inc.", "location": "3050 SPRUCE ST. ST. LOUIS MO  63103. UNITED STATES", "tel": ":  +1 314 771-5765", "fax": ":  +1 800 325-5052"}, "formula": ":  C32H40FeP2", "mw": ":  542.45 g/mol", "ec": "No data available", "appearance": "Form: powder. Color: orange", "odor": "No data available", "pH": "No data available", "melting_point": "No data available. point/freezing point", "flash_point": "()No data available", "evaporation_rate": "No data available", "flammability": "No data available. gas)", "vapor_pressure": "No data available", "vapor_density": "No data available", "density": "No data available. Relative density. No data available", "water_solubility": "No data available", "partition_coefficient": "No data available. n-octanol/water", "autoignition": "No data available. temperature", "decomposition": "No data available. temperature", "viscosity": "No data available", "explosive_properties": "No data available", "oxidizing_properties": "No data available", "bulk_density": "No data available", "particle_size": "No data available", "statements": [{"code": "H318", "statement": "Causes serious eye damage."}, {"code": "H413", "statement": "May cause long lasting harmful effects to aquatic life.. Precautionary statement(s)"}, {"code": "P273", "statement": "Avoid release to the environment."}, {"code": "P280", "statement": "Wear protective gloves/ eye protection/ face protection."}, {"code": "P305 + P351 + P338", "statement": "IF IN EYES: Rinse cautiously with water for several minutes.. Remove contact lenses, if present and easy to do. Continue. rinsing."}, {"code": "P310", "statement": "Immediately call a POISON CENTER/ doctor."}, {"code": "P501", "statement": "Dispose of contents/ container to an approved waste disposal. plant."}, {"code": "H315", "statement": "Causes skin irritation."}, {"code": "H319", "statement": "Causes serious eye irritation."}, {"code": "H335", "statement": "May cause respiratory irritation.. Precautionary statement(s)"}, {"code": "P261", "statement": "Avoid breathing dust/ fume/ gas/ mist/ vapours/ spray."}, {"code": "P264", "statement": "Wash skin thoroughly after handling."}, {"code": "P271", "statement": "Use only outdoors or in a well-ventilated area."}, {"code": "P280", "statement": "Wear protective gloves/ eye protection/ face protection."}, {"code": "P302 + P352", "statement": "IF ON SKIN: Wash with plenty of soap and water."}, {"code": "P304 + P340", "statement": "IF INHALED: Remove victim to fresh air and keep at rest in a. position comfortable for breathing."}, {"code": "P305 + P351 + P338", "statement": "IF IN EYES: Rinse cautiously with water for several minutes.. Remove contact lenses, if present and easy to do. Continue. rinsing."}, {"code": "P312", "statement": "Call a POISON CENTER/doctor if you feel unwell."}, {"code": "P321", "statement": "Specific treatment (see supplemental first aid instructions on. this label)."}, {"code": "P332 + P313", "statement": "If skin irritation occurs: Get medical advice/ attention."}, {"code": "P337 + P313", "statement": "If eye irritation persists: Get medical advice/ attention."}, {"code": "P362", "statement": "Take off contaminated clothing and wash before reuse."}, {"code": "P403 + P233", "statement": "Store in a well-ventilated place. Keep container tightly closed."}, {"code": "P405", "statement": "Store locked up."}, {"code": "P501", "statement": "Dispose of contents/ container to an approved waste disposal. plant."}, {"code": "H301", "statement": "Toxic if swallowed.. Precautionary statement(s)"}, {"code": "P264", "statement": "Wash skin thoroughly after handling."}, {"code": "P270", "statement": "Do not eat, drink or smoke when using this product."}, {"code": "P301 + P310", "statement": "IF SWALLOWED: Immediately call a POISON CENTER/doctor."}, {"code": "P321", "statement": "Specific treatment (see supplemental first aid instructions on. this label)."}, {"code": "P330", "statement": "Rinse mouth."}, {"code": "P405", "statement": "Store locked up."}, {"code": "P501", "statement": "Dispose of contents/ container to an approved waste disposal. plant."}, {"code": "H302 + H312 + H332", "statement": "Harmful if swallowed, in contact with skin or if inhaled.. Precautionary statement(s)"}, {"code": "P261", "statement": "Avoid breathing dust/ fume/ gas/ mist/ vapours/ spray."}, {"code": "P264", "statement": "Wash skin thoroughly after handling."}, {"code": "P270", "statement": "Do not eat, drink or smoke when using this product."}, {"code": "P271", "statement": "Use only outdoors or in a well-ventilated area."}, {"code": "P280", "statement": "Wear protective gloves/ protective clothing."}, {"code": "P301 + P312 + P330", "statement": "IF SWALLOWED: Call a POISON CENTER/doctor if you feel. unwell. Rinse mouth."}, {"code": "P302 + P352 + P312", "statement": "IF ON SKIN: Wash with plenty of water. Call a POISON. CENTER/doctor if you feel unwell."}, {"code": "P304 + P340 + P312", "statement": "IF INHALED: Remove person to fresh air and keep comfortable. for breathing. Call a POISON CENTER/doctor if you feel unwell."}, {"code": "P363", "statement": "Wash contaminated clothing before reuse."}, {"code": "P501", "statement": "Dispose of contents/ container to an approved waste disposal. plant."}], "canonical_smiles": "No data available", "isomeric_smiles": "No data available"}]