[{"id": 2872, "product_number": "16301", "CAS_number": "14431-43-7", "product_name": "D-(+)-Glucose monohydrate", "product_brand": "Sigma-Aldrich", "supplier": {"company": ":  Sigma-Aldrich Inc.", "location": "3050 SPRUCE ST. ST. LOUIS MO  63103. UNITED STATES", "tel": ":  +1 314 771-5765", "fax": ":  +1 800 325-5052"}, "formula": ":  C6H12O6 \u00b7 H2O", "mw": ":  198.17 g/mol", "ec": ":  218-914-5. No components need to be disclosed according to the applicable regulations.", "appearance": "Form: powder. Color: white", "odor": "No data available", "pH": "6 - 7 at 100 g/l at 20 \u00b0C (68 \u00b0F)", "melting_point": "Melting point/range: ca.83 \u00b0C (ca.181 \u00b0F). point/freezing point", "flash_point": "()No data available", "evaporation_rate": "No data available", "flammability": "No data available. gas)", "vapor_pressure": "No data available", "vapor_density": "No data available", "density": "No data available", "water_solubility": "1,000 g/l at 20 \u00b0C (68 \u00b0F)", "partition_coefficient": "log Pow: -3.29 - (anhydrous substance), Bioaccumulation is not. n-octanol/water. expected.", "autoignition": "No data available. temperature", "decomposition": "No data available. temperature", "viscosity": "No data available", "explosive_properties": "No data available", "oxidizing_properties": "No data available", "bulk_density": "No data available", "particle_size": "No data available", "statements": [{"code": "H302", "statement": "Harmful if swallowed."}, {"code": "H319", "statement": "Causes serious eye irritation.. Precautionary statement(s)"}, {"code": "P264", "statement": "Wash skin thoroughly after handling."}, {"code": "P270", "statement": "Do not eat, drink or smoke when using this product."}, {"code": "P280", "statement": "Wear eye protection/ face protection."}, {"code": "P301 + P312 + P330", "statement": "IF SWALLOWED: Call a POISON CENTER/ doctor if you feel. unwell. Rinse mouth."}, {"code": "P305 + P351 + P338", "statement": "IF IN EYES: Rinse cautiously with water for several minutes.. Remove contact lenses, if present and easy to do. Continue. rinsing."}, {"code": "P337 + P313", "statement": "If eye irritation persists: Get medical advice/ attention."}, {"code": "P501", "statement": "Dispose of contents/ container to an approved waste disposal. plant."}, {"code": "H315", "statement": "Causes skin irritation."}, {"code": "H319", "statement": "Causes serious eye irritation."}, {"code": "H335", "statement": "May cause respiratory irritation.. Precautionary statement(s)"}, {"code": "P261", "statement": "Avoid breathing dust/ fume/ gas/ mist/ vapors/ spray."}, {"code": "P264", "statement": "Wash skin thoroughly after handling."}, {"code": "P271", "statement": "Use only outdoors or in a well-ventilated area."}, {"code": "P280", "statement": "Wear protective gloves/ eye protection/ face protection."}, {"code": "P302 + P352", "statement": "IF ON SKIN: Wash with plenty of soap and water."}, {"code": "P304 + P340 + P312", "statement": "IF INHALED: Remove person to fresh air and keep comfortable. for breathing. Call a POISON CENTER/ doctor if you feel unwell."}, {"code": "P305 + P351 + P338", "statement": "IF IN EYES: Rinse cautiously with water for several minutes.. Remove contact lenses, if present and easy to do. Continue. rinsing."}, {"code": "P332 + P313", "statement": "If skin irritation occurs: Get medical advice/ attention."}, {"code": "P337 + P313", "statement": "If eye irritation persists: Get medical advice/ attention."}, {"code": "P362", "statement": "Take off contaminated clothing and wash before reuse."}, {"code": "P403 + P233", "statement": "Store in a well-ventilated place. Keep container tightly closed."}, {"code": "P405", "statement": "Store locked up."}, {"code": "P501", "statement": "Dispose of contents/ container to an approved waste disposal. plant."}, {"code": "H302", "statement": "Harmful if swallowed.. Precautionary statement(s)"}, {"code": "P264", "statement": "Wash skin thoroughly after handling."}, {"code": "P270", "statement": "Do not eat, drink or smoke when using this product."}, {"code": "P301 + P312 + P330", "statement": "IF SWALLOWED: Call a POISON CENTER/ doctor if you feel. unwell. Rinse mouth."}, {"code": "P501", "statement": "Dispose of contents/ container to an approved waste disposal. plant."}, {"code": "H301", "statement": "Toxic if swallowed."}, {"code": "H319", "statement": "Causes serious eye irritation.. Precautionary statement(s)"}, {"code": "P264", "statement": "Wash skin thoroughly after handling."}, {"code": "P270", "statement": "Do not eat, drink or smoke when using this product."}, {"code": "P280", "statement": "Wear eye protection/ face protection."}, {"code": "P301 + P310 + P330", "statement": "IF SWALLOWED: Immediately call a POISON CENTER/ doctor.. Rinse mouth."}, {"code": "P305 + P351 + P338", "statement": "IF IN EYES: Rinse cautiously with water for several minutes.. Remove contact lenses, if present and easy to do. Continue. rinsing."}, {"code": "P337 + P313", "statement": "If eye irritation persists: Get medical advice/ attention."}, {"code": "P405", "statement": "Store locked up."}, {"code": "P501", "statement": "Dispose of contents/ container to an approved waste disposal. plant."}], "canonical_smiles": "C(C1C(C(C(C(O1)O)O)O)O)O.O", "isomeric_smiles": "C([C@@H]1[C@H]([C@@H]([C@H]([C@H](O1)O)O)O)O)O.O"}, {"id": 3029, "product_number": "900523", "CAS_number": "39466-62-1", "product_name": "Ammonium-15N chloride", "product_brand": "Aldrich", "supplier": {"company": ":  Sigma-Aldrich Inc.", "location": "3050 SPRUCE ST. ST. LOUIS MO  63103. UNITED STATES", "tel": ":  +1 314 771-5765", "fax": ":  +1 800 325-5052"}, "formula": ":  H4Cl15N", "mw": ":  54.49 g/mol", "ec": "No data available", "appearance": "Form: crystalline. Color: white", "odor": "Not applicable", "pH": "5 - 5.5 at 10 - 100 g/l at 25 \u00b0C (77 \u00b0F)", "melting_point": "Melting point: 338 \u00b0C (640 \u00b0F) at 1,013 hPa. point/freezing point", "flash_point": "()Not applicable", "evaporation_rate": "No data available", "flammability": "No data available. gas)", "vapor_pressure": "1 hPa at 160.4 \u00b0C (320.7 \u00b0F)", "vapor_density": "No data available", "density": "No data available", "water_solubility": "372 g/l at 20 \u00b0C (68 \u00b0F) - (External MSDS)", "partition_coefficient": "Not applicable for inorganic substances. n-octanol/water", "autoignition": "No data available. temperature", "decomposition": "Not applicable. temperature", "viscosity": "No data available", "explosive_properties": "No data available", "oxidizing_properties": "No data available", "bulk_density": "No data available", "particle_size": "No data available", "statements": [{"code": "H302", "statement": "Harmful if swallowed."}, {"code": "H319", "statement": "Causes serious eye irritation.. Precautionary statement(s)"}, {"code": "P264", "statement": "Wash skin thoroughly after handling."}, {"code": "P270", "statement": "Do not eat, drink or smoke when using this product."}, {"code": "P280", "statement": "Wear eye protection/ face protection."}, {"code": "P301 + P312 + P330", "statement": "IF SWALLOWED: Call a POISON CENTER/ doctor if you feel. unwell. Rinse mouth."}, {"code": "P305 + P351 + P338", "statement": "IF IN EYES: Rinse cautiously with water for several minutes.. Remove contact lenses, if present and easy to do. Continue. rinsing."}, {"code": "P337 + P313", "statement": "If eye irritation persists: Get medical advice/ attention."}, {"code": "P501", "statement": "Dispose of contents/ container to an approved waste disposal. plant."}, {"code": "H315", "statement": "Causes skin irritation."}, {"code": "H319", "statement": "Causes serious eye irritation."}, {"code": "H335", "statement": "May cause respiratory irritation.. Precautionary statement(s)"}, {"code": "P261", "statement": "Avoid breathing dust/ fume/ gas/ mist/ vapors/ spray."}, {"code": "P264", "statement": "Wash skin thoroughly after handling."}, {"code": "P271", "statement": "Use only outdoors or in a well-ventilated area."}, {"code": "P280", "statement": "Wear protective gloves/ eye protection/ face protection."}, {"code": "P302 + P352", "statement": "IF ON SKIN: Wash with plenty of soap and water."}, {"code": "P304 + P340 + P312", "statement": "IF INHALED: Remove person to fresh air and keep comfortable. for breathing. Call a POISON CENTER/ doctor if you feel unwell."}, {"code": "P305 + P351 + P338", "statement": "IF IN EYES: Rinse cautiously with water for several minutes.. Remove contact lenses, if present and easy to do. Continue. rinsing."}, {"code": "P332 + P313", "statement": "If skin irritation occurs: Get medical advice/ attention."}, {"code": "P337 + P313", "statement": "If eye irritation persists: Get medical advice/ attention."}, {"code": "P362", "statement": "Take off contaminated clothing and wash before reuse."}, {"code": "P403 + P233", "statement": "Store in a well-ventilated place. Keep container tightly closed."}, {"code": "P405", "statement": "Store locked up."}, {"code": "P501", "statement": "Dispose of contents/ container to an approved waste disposal. plant."}, {"code": "H302", "statement": "Harmful if swallowed.. Precautionary statement(s)"}, {"code": "P264", "statement": "Wash skin thoroughly after handling."}, {"code": "P270", "statement": "Do not eat, drink or smoke when using this product."}, {"code": "P301 + P312 + P330", "statement": "IF SWALLOWED: Call a POISON CENTER/ doctor if you feel. unwell. Rinse mouth."}, {"code": "P501", "statement": "Dispose of contents/ container to an approved waste disposal. plant."}, {"code": "H301", "statement": "Toxic if swallowed."}, {"code": "H319", "statement": "Causes serious eye irritation.. Precautionary statement(s)"}, {"code": "P264", "statement": "Wash skin thoroughly after handling."}, {"code": "P270", "statement": "Do not eat, drink or smoke when using this product."}, {"code": "P280", "statement": "Wear eye protection/ face protection."}, {"code": "P301 + P310 + P330", "statement": "IF SWALLOWED: Immediately call a POISON CENTER/ doctor.. Rinse mouth."}, {"code": "P305 + P351 + P338", "statement": "IF IN EYES: Rinse cautiously with water for several minutes.. Remove contact lenses, if present and easy to do. Continue. rinsing."}, {"code": "P337 + P313", "statement": "If eye irritation persists: Get medical advice/ attention."}, {"code": "P405", "statement": "Store locked up."}, {"code": "P501", "statement": "Dispose of contents/ container to an approved waste disposal. plant."}], "canonical_smiles": "[NH4+].[Cl-]", "isomeric_smiles": "[15NH4+].[Cl-]"}, {"id": 276, "product_number": "S355887", "CAS_number": "63681-01-6", "product_name": "2,2,4,6-Tetramethyl-1,2-Dihydropyridine", "product_brand": "Aldrich", "supplier": {"company": ":  Sigma-Aldrich Inc.", "location": "3050 SPRUCE ST. ST. LOUIS MO  63103. UNITED STATES", "tel": ":  +1 314 771-5765", "fax": ":  +1 800 325-5052"}, "formula": ":  C9H15N", "mw": ":  137.23 g/mol", "ec": "No data available", "appearance": "No data available", "odor": "No data available", "pH": "No data available", "melting_point": "No data available", "flash_point": "No data available", "evaporation_rate": "No data available", "flammability": "No data available", "vapor_pressure": "No data available", "vapor_density": "No data available", "density": "No data available", "water_solubility": "No data available", "partition_coefficient": "No data available", "autoignition": "No data available", "decomposition": "No data available", "viscosity": "No data available", "explosive_properties": "No data available", "oxidizing_properties": "No data available", "bulk_density": "No data available", "particle_size": "No data available", "statements": [{"code": "H302", "statement": "Harmful if swallowed."}, {"code": "H319", "statement": "Causes serious eye irritation.. Precautionary statement(s)"}, {"code": "P264", "statement": "Wash skin thoroughly after handling."}, {"code": "P270", "statement": "Do not eat, drink or smoke when using this product."}, {"code": "P280", "statement": "Wear eye protection/ face protection."}, {"code": "P301 + P312 + P330", "statement": "IF SWALLOWED: Call a POISON CENTER/ doctor if you feel. unwell. Rinse mouth."}, {"code": "P305 + P351 + P338", "statement": "IF IN EYES: Rinse cautiously with water for several minutes.. Remove contact lenses, if present and easy to do. Continue. rinsing."}, {"code": "P337 + P313", "statement": "If eye irritation persists: Get medical advice/ attention."}, {"code": "P501", "statement": "Dispose of contents/ container to an approved waste disposal. plant."}, {"code": "H315", "statement": "Causes skin irritation."}, {"code": "H319", "statement": "Causes serious eye irritation."}, {"code": "H335", "statement": "May cause respiratory irritation.. Precautionary statement(s)"}, {"code": "P261", "statement": "Avoid breathing dust/ fume/ gas/ mist/ vapors/ spray."}, {"code": "P264", "statement": "Wash skin thoroughly after handling."}, {"code": "P271", "statement": "Use only outdoors or in a well-ventilated area."}, {"code": "P280", "statement": "Wear protective gloves/ eye protection/ face protection."}, {"code": "P302 + P352", "statement": "IF ON SKIN: Wash with plenty of soap and water."}, {"code": "P304 + P340 + P312", "statement": "IF INHALED: Remove person to fresh air and keep comfortable. for breathing. Call a POISON CENTER/ doctor if you feel unwell."}, {"code": "P305 + P351 + P338", "statement": "IF IN EYES: Rinse cautiously with water for several minutes.. Remove contact lenses, if present and easy to do. Continue. rinsing."}, {"code": "P332 + P313", "statement": "If skin irritation occurs: Get medical advice/ attention."}, {"code": "P337 + P313", "statement": "If eye irritation persists: Get medical advice/ attention."}, {"code": "P362", "statement": "Take off contaminated clothing and wash before reuse."}, {"code": "P403 + P233", "statement": "Store in a well-ventilated place. Keep container tightly closed."}, {"code": "P405", "statement": "Store locked up."}, {"code": "P501", "statement": "Dispose of contents/ container to an approved waste disposal. plant."}, {"code": "H302", "statement": "Harmful if swallowed.. Precautionary statement(s)"}, {"code": "P264", "statement": "Wash skin thoroughly after handling."}, {"code": "P270", "statement": "Do not eat, drink or smoke when using this product."}, {"code": "P301 + P312 + P330", "statement": "IF SWALLOWED: Call a POISON CENTER/ doctor if you feel. unwell. Rinse mouth."}, {"code": "P501", "statement": "Dispose of contents/ container to an approved waste disposal. plant."}, {"code": "H301", "statement": "Toxic if swallowed."}, {"code": "H319", "statement": "Causes serious eye irritation.. Precautionary statement(s)"}, {"code": "P264", "statement": "Wash skin thoroughly after handling."}, {"code": "P270", "statement": "Do not eat, drink or smoke when using this product."}, {"code": "P280", "statement": "Wear eye protection/ face protection."}, {"code": "P301 + P310 + P330", "statement": "IF SWALLOWED: Immediately call a POISON CENTER/ doctor.. Rinse mouth."}, {"code": "P305 + P351 + P338", "statement": "IF IN EYES: Rinse cautiously with water for several minutes.. Remove contact lenses, if present and easy to do. Continue. rinsing."}, {"code": "P337 + P313", "statement": "If eye irritation persists: Get medical advice/ attention."}, {"code": "P405", "statement": "Store locked up."}, {"code": "P501", "statement": "Dispose of contents/ container to an approved waste disposal. plant."}], "canonical_smiles": "CC1=CC(=CC(N1)(C)C)C", "isomeric_smiles": "CC1=CC(=CC(N1)(C)C)C"}, {"id": 3013, "product_number": "429031", "CAS_number": "3922-40-5", "product_name": "4,7-Dihydroxy-1,10-phenanthroline", "product_brand": "Aldrich", "supplier": {"company": ":  Sigma-Aldrich Inc.", "location": "3050 SPRUCE ST. ST. LOUIS MO  63103. UNITED STATES", "tel": ":  +1 314 771-5765", "fax": ":  +1 800 325-5052"}, "formula": ":  C12H8N2O2", "mw": ":  212.20 g/mol", "ec": ":  223-493-6. TabulaTable(extraction_method=stream, page_number=2, top=458.0, bottom=528.0, left=80.0, right=558.0, width=478.0, height=70.0, data=\n+----------------------------+---------------------------------------------------------+-------------+\n|Component                   |Classification                                           |Concentration|\n+----------------------------+---------------------------------------------------------+-------------+\n|1,10-Phenanthroline-4,7-diol|                                                         |             |\n+----------------------------+---------------------------------------------------------+-------------+\n|1,10-Phenanthroline-4,7-diol|Skin Irrit. 2; Eye Irrit. 2A; STOT SE 3; H315, H319, H335|<= 100 %     |\n+----------------------------+---------------------------------------------------------+-------------+\n, additional_ops=['strip_text', 'merge_rows', 'pull_down_to_empty'])", "appearance": "Form: solid", "odor": "No data available", "pH": "No data available", "melting_point": "Melting point/range: > 300 \u00b0C (> 572 \u00b0F) - dec.. point/freezing point", "flash_point": "()No data available", "evaporation_rate": "No data available", "flammability": "No data available. gas)", "vapor_pressure": "No data available", "vapor_density": "No data available", "density": "No data available. Relative density. No data available", "water_solubility": "No data available", "partition_coefficient": "No data available. n-octanol/water", "autoignition": "No data available. temperature", "decomposition": "No data available. temperature", "viscosity": "No data available", "explosive_properties": "No data available", "oxidizing_properties": "No data available", "bulk_density": "No data available", "particle_size": "No data available", "statements": [{"code": "H302", "statement": "Harmful if swallowed."}, {"code": "H319", "statement": "Causes serious eye irritation.. Precautionary statement(s)"}, {"code": "P264", "statement": "Wash skin thoroughly after handling."}, {"code": "P270", "statement": "Do not eat, drink or smoke when using this product."}, {"code": "P280", "statement": "Wear eye protection/ face protection."}, {"code": "P301 + P312 + P330", "statement": "IF SWALLOWED: Call a POISON CENTER/ doctor if you feel. unwell. Rinse mouth."}, {"code": "P305 + P351 + P338", "statement": "IF IN EYES: Rinse cautiously with water for several minutes.. Remove contact lenses, if present and easy to do. Continue. rinsing."}, {"code": "P337 + P313", "statement": "If eye irritation persists: Get medical advice/ attention."}, {"code": "P501", "statement": "Dispose of contents/ container to an approved waste disposal. plant."}, {"code": "H315", "statement": "Causes skin irritation."}, {"code": "H319", "statement": "Causes serious eye irritation."}, {"code": "H335", "statement": "May cause respiratory irritation.. Precautionary statement(s)"}, {"code": "P261", "statement": "Avoid breathing dust/ fume/ gas/ mist/ vapors/ spray."}, {"code": "P264", "statement": "Wash skin thoroughly after handling."}, {"code": "P271", "statement": "Use only outdoors or in a well-ventilated area."}, {"code": "P280", "statement": "Wear protective gloves/ eye protection/ face protection."}, {"code": "P302 + P352", "statement": "IF ON SKIN: Wash with plenty of soap and water."}, {"code": "P304 + P340 + P312", "statement": "IF INHALED: Remove person to fresh air and keep comfortable. for breathing. Call a POISON CENTER/ doctor if you feel unwell."}, {"code": "P305 + P351 + P338", "statement": "IF IN EYES: Rinse cautiously with water for several minutes.. Remove contact lenses, if present and easy to do. Continue. rinsing."}, {"code": "P332 + P313", "statement": "If skin irritation occurs: Get medical advice/ attention."}, {"code": "P337 + P313", "statement": "If eye irritation persists: Get medical advice/ attention."}, {"code": "P362", "statement": "Take off contaminated clothing and wash before reuse."}, {"code": "P403 + P233", "statement": "Store in a well-ventilated place. Keep container tightly closed."}, {"code": "P405", "statement": "Store locked up."}, {"code": "P501", "statement": "Dispose of contents/ container to an approved waste disposal. plant."}, {"code": "H302", "statement": "Harmful if swallowed.. Precautionary statement(s)"}, {"code": "P264", "statement": "Wash skin thoroughly after handling."}, {"code": "P270", "statement": "Do not eat, drink or smoke when using this product."}, {"code": "P301 + P312 + P330", "statement": "IF SWALLOWED: Call a POISON CENTER/ doctor if you feel. unwell. Rinse mouth."}, {"code": "P501", "statement": "Dispose of contents/ container to an approved waste disposal. plant."}, {"code": "H301", "statement": "Toxic if swallowed."}, {"code": "H319", "statement": "Causes serious eye irritation.. Precautionary statement(s)"}, {"code": "P264", "statement": "Wash skin thoroughly after handling."}, {"code": "P270", "statement": "Do not eat, drink or smoke when using this product."}, {"code": "P280", "statement": "Wear eye protection/ face protection."}, {"code": "P301 + P310 + P330", "statement": "IF SWALLOWED: Immediately call a POISON CENTER/ doctor.. Rinse mouth."}, {"code": "P305 + P351 + P338", "statement": "IF IN EYES: Rinse cautiously with water for several minutes.. Remove contact lenses, if present and easy to do. Continue. rinsing."}, {"code": "P337 + P313", "statement": "If eye irritation persists: Get medical advice/ attention."}, {"code": "P405", "statement": "Store locked up."}, {"code": "P501", "statement": "Dispose of contents/ container to an approved waste disposal. plant."}], "canonical_smiles": "C1=CC2=C(C3=C1C(=O)C=CN3)NC=CC2=O", "isomeric_smiles": "C1=CC2=C(C3=C1C(=O)C=CN3)NC=CC2=O"}, {"id": 249, "product_number": "648930", "CAS_number": "890090-57-0", "product_name": "2-(3-Fluorophenyl)-3-butyn-2-ol", "product_brand": "Aldrich", "supplier": {"company": ":  Sigma-Aldrich Inc.", "location": "3050 SPRUCE ST. ST. LOUIS MO  63103. UNITED STATES", "tel": ":  +1 314 771-5765", "fax": ":  +1 800 325-5052"}, "formula": ":  C10H9FO", "mw": ":  164.18 g/mol", "ec": "No data available", "appearance": "Form: solid", "odor": "No data available", "pH": "No data available", "melting_point": "Melting point/range: 32 - 38 \u00b0C (90 - 100 \u00b0F) - lit.. point/freezing point", "flash_point": "97 \u00b0C (207 \u00b0F) - closed cup", "evaporation_rate": "No data available", "flammability": "gas)", "vapor_pressure": "No data available", "vapor_density": "No data available", "density": "No data available. Relative density. No data available", "water_solubility": "No data available", "partition_coefficient": "No data available. n-octanol/water", "autoignition": "No data available. temperature", "decomposition": "No data available. temperature", "viscosity": "No data available", "explosive_properties": "No data available", "oxidizing_properties": "No data available", "bulk_density": "No data available", "particle_size": "No data available", "statements": [{"code": "H302", "statement": "Harmful if swallowed."}, {"code": "H319", "statement": "Causes serious eye irritation.. Precautionary statement(s)"}, {"code": "P264", "statement": "Wash skin thoroughly after handling."}, {"code": "P270", "statement": "Do not eat, drink or smoke when using this product."}, {"code": "P280", "statement": "Wear eye protection/ face protection."}, {"code": "P301 + P312 + P330", "statement": "IF SWALLOWED: Call a POISON CENTER/ doctor if you feel. unwell. Rinse mouth."}, {"code": "P305 + P351 + P338", "statement": "IF IN EYES: Rinse cautiously with water for several minutes.. Remove contact lenses, if present and easy to do. Continue. rinsing."}, {"code": "P337 + P313", "statement": "If eye irritation persists: Get medical advice/ attention."}, {"code": "P501", "statement": "Dispose of contents/ container to an approved waste disposal. plant."}, {"code": "H315", "statement": "Causes skin irritation."}, {"code": "H319", "statement": "Causes serious eye irritation."}, {"code": "H335", "statement": "May cause respiratory irritation.. Precautionary statement(s)"}, {"code": "P261", "statement": "Avoid breathing dust/ fume/ gas/ mist/ vapors/ spray."}, {"code": "P264", "statement": "Wash skin thoroughly after handling."}, {"code": "P271", "statement": "Use only outdoors or in a well-ventilated area."}, {"code": "P280", "statement": "Wear protective gloves/ eye protection/ face protection."}, {"code": "P302 + P352", "statement": "IF ON SKIN: Wash with plenty of soap and water."}, {"code": "P304 + P340 + P312", "statement": "IF INHALED: Remove person to fresh air and keep comfortable. for breathing. Call a POISON CENTER/ doctor if you feel unwell."}, {"code": "P305 + P351 + P338", "statement": "IF IN EYES: Rinse cautiously with water for several minutes.. Remove contact lenses, if present and easy to do. Continue. rinsing."}, {"code": "P332 + P313", "statement": "If skin irritation occurs: Get medical advice/ attention."}, {"code": "P337 + P313", "statement": "If eye irritation persists: Get medical advice/ attention."}, {"code": "P362", "statement": "Take off contaminated clothing and wash before reuse."}, {"code": "P403 + P233", "statement": "Store in a well-ventilated place. Keep container tightly closed."}, {"code": "P405", "statement": "Store locked up."}, {"code": "P501", "statement": "Dispose of contents/ container to an approved waste disposal. plant."}, {"code": "H302", "statement": "Harmful if swallowed.. Precautionary statement(s)"}, {"code": "P264", "statement": "Wash skin thoroughly after handling."}, {"code": "P270", "statement": "Do not eat, drink or smoke when using this product."}, {"code": "P301 + P312 + P330", "statement": "IF SWALLOWED: Call a POISON CENTER/ doctor if you feel. unwell. Rinse mouth."}, {"code": "P501", "statement": "Dispose of contents/ container to an approved waste disposal. plant."}, {"code": "H301", "statement": "Toxic if swallowed."}, {"code": "H319", "statement": "Causes serious eye irritation.. Precautionary statement(s)"}, {"code": "P264", "statement": "Wash skin thoroughly after handling."}, {"code": "P270", "statement": "Do not eat, drink or smoke when using this product."}, {"code": "P280", "statement": "Wear eye protection/ face protection."}, {"code": "P301 + P310 + P330", "statement": "IF SWALLOWED: Immediately call a POISON CENTER/ doctor.. Rinse mouth."}, {"code": "P305 + P351 + P338", "statement": "IF IN EYES: Rinse cautiously with water for several minutes.. Remove contact lenses, if present and easy to do. Continue. rinsing."}, {"code": "P337 + P313", "statement": "If eye irritation persists: Get medical advice/ attention."}, {"code": "P405", "statement": "Store locked up."}, {"code": "P501", "statement": "Dispose of contents/ container to an approved waste disposal. plant."}], "canonical_smiles": "CC(C#C)(C1=CC(=CC=C1)F)O", "isomeric_smiles": "CC(C#C)(C1=CC(=CC=C1)F)O"}, {"id": 271, "product_number": "CDS015257", "CAS_number": "63854-31-9", "product_name": "1-(2-trifluoromethylphenyl)-piperazine", "product_brand": "Aldrich", "supplier": {"company": ":  Sigma-Aldrich Inc.", "location": "3050 SPRUCE ST. ST. LOUIS MO  63103. UNITED STATES", "tel": ":  +1 314 771-5765", "fax": ":  +1 800 325-5052"}, "formula": ":  C11H13F3N2", "mw": ":  230.23 g/mol", "ec": ":  264-514-9. TabulaTable(extraction_method=stream, page_number=2, top=343.0, bottom=401.0, left=80.0, right=558.0, width=478.0, height=58.0, data=\n+--------------------------------------+---------------------------------------+-------------+\n|Component                             |Classification                         |Concentration|\n+--------------------------------------+---------------------------------------+-------------+\n|1-(2-trifluoromethylphenyl)-piperazine|                                       |             |\n+--------------------------------------+---------------------------------------+-------------+\n|1-(2-trifluoromethylphenyl)-piperazine|Acute Tox. 3; Eye Irrit. 2A; H301, H319|<= 100 %     |\n+--------------------------------------+---------------------------------------+-------------+\n, additional_ops=['strip_text', 'merge_rows', 'pull_down_to_empty'])", "appearance": "Form: solid", "odor": "No data available", "pH": "No data available", "melting_point": "No data available. point/freezing point", "flash_point": "()Not applicable", "evaporation_rate": "No data available", "flammability": "No data available. gas)", "vapor_pressure": "No data available", "vapor_density": "No data available", "density": "No data available. Relative density. No data available", "water_solubility": "No data available", "partition_coefficient": "No data available. n-octanol/water", "autoignition": "No data available. temperature", "decomposition": "No data available. temperature", "viscosity": "No data available", "explosive_properties": "No data available", "oxidizing_properties": "No data available", "bulk_density": "No data available", "particle_size": "No data available", "statements": [{"code": "H302", "statement": "Harmful if swallowed."}, {"code": "H319", "statement": "Causes serious eye irritation.. Precautionary statement(s)"}, {"code": "P264", "statement": "Wash skin thoroughly after handling."}, {"code": "P270", "statement": "Do not eat, drink or smoke when using this product."}, {"code": "P280", "statement": "Wear eye protection/ face protection."}, {"code": "P301 + P312 + P330", "statement": "IF SWALLOWED: Call a POISON CENTER/ doctor if you feel. unwell. Rinse mouth."}, {"code": "P305 + P351 + P338", "statement": "IF IN EYES: Rinse cautiously with water for several minutes.. Remove contact lenses, if present and easy to do. Continue. rinsing."}, {"code": "P337 + P313", "statement": "If eye irritation persists: Get medical advice/ attention."}, {"code": "P501", "statement": "Dispose of contents/ container to an approved waste disposal. plant."}, {"code": "H315", "statement": "Causes skin irritation."}, {"code": "H319", "statement": "Causes serious eye irritation."}, {"code": "H335", "statement": "May cause respiratory irritation.. Precautionary statement(s)"}, {"code": "P261", "statement": "Avoid breathing dust/ fume/ gas/ mist/ vapors/ spray."}, {"code": "P264", "statement": "Wash skin thoroughly after handling."}, {"code": "P271", "statement": "Use only outdoors or in a well-ventilated area."}, {"code": "P280", "statement": "Wear protective gloves/ eye protection/ face protection."}, {"code": "P302 + P352", "statement": "IF ON SKIN: Wash with plenty of soap and water."}, {"code": "P304 + P340 + P312", "statement": "IF INHALED: Remove person to fresh air and keep comfortable. for breathing. Call a POISON CENTER/ doctor if you feel unwell."}, {"code": "P305 + P351 + P338", "statement": "IF IN EYES: Rinse cautiously with water for several minutes.. Remove contact lenses, if present and easy to do. Continue. rinsing."}, {"code": "P332 + P313", "statement": "If skin irritation occurs: Get medical advice/ attention."}, {"code": "P337 + P313", "statement": "If eye irritation persists: Get medical advice/ attention."}, {"code": "P362", "statement": "Take off contaminated clothing and wash before reuse."}, {"code": "P403 + P233", "statement": "Store in a well-ventilated place. Keep container tightly closed."}, {"code": "P405", "statement": "Store locked up."}, {"code": "P501", "statement": "Dispose of contents/ container to an approved waste disposal. plant."}, {"code": "H302", "statement": "Harmful if swallowed.. Precautionary statement(s)"}, {"code": "P264", "statement": "Wash skin thoroughly after handling."}, {"code": "P270", "statement": "Do not eat, drink or smoke when using this product."}, {"code": "P301 + P312 + P330", "statement": "IF SWALLOWED: Call a POISON CENTER/ doctor if you feel. unwell. Rinse mouth."}, {"code": "P501", "statement": "Dispose of contents/ container to an approved waste disposal. plant."}, {"code": "H301", "statement": "Toxic if swallowed."}, {"code": "H319", "statement": "Causes serious eye irritation.. Precautionary statement(s)"}, {"code": "P264", "statement": "Wash skin thoroughly after handling."}, {"code": "P270", "statement": "Do not eat, drink or smoke when using this product."}, {"code": "P280", "statement": "Wear eye protection/ face protection."}, {"code": "P301 + P310 + P330", "statement": "IF SWALLOWED: Immediately call a POISON CENTER/ doctor.. Rinse mouth."}, {"code": "P305 + P351 + P338", "statement": "IF IN EYES: Rinse cautiously with water for several minutes.. Remove contact lenses, if present and easy to do. Continue. rinsing."}, {"code": "P337 + P313", "statement": "If eye irritation persists: Get medical advice/ attention."}, {"code": "P405", "statement": "Store locked up."}, {"code": "P501", "statement": "Dispose of contents/ container to an approved waste disposal. plant."}], "canonical_smiles": "C1CN(CCN1)C2=CC=CC=C2C(F)(F)F", "isomeric_smiles": "C1CN(CCN1)C2=CC=CC=C2C(F)(F)F"}]